 vasp.5.4.4.18Apr17-6-g9f103f2a35 (build Mar 30 2021 17:29:28) complex           
 executed on             LinuxGNU date 2021.03.31  09:32:59
 running on    6 total cores
 each image running on    2 cores
 distrk:  each k-point on    2 cores,    1 groups
 distr:  one band on NCORES_PER_BAND=   1 cores,    2 groups


--------------------------------------------------------------------------------------------------------


 INCAR:
 POTCAR:    PAW_PBE H 15Jun2001                   
 POTCAR:    PAW_PBE N 08Apr2002                   
 POTCAR:    PAW_PBE H 15Jun2001                   
   VRHFIN =H: ultrasoft test                                                    
   LEXCH  = PE                                                                  
   EATOM  =    12.4884 eV,    0.9179 Ry                                         
                                                                                
   TITEL  = PAW_PBE H 15Jun2001                                                 
   LULTRA =        F    use ultrasoft PP ?                                      
   IUNSCR =        0    unscreen: 0-lin 1-nonlin 2-no                           
   RPACOR =    0.000    partial core radius                                     
   POMASS =    1.000; ZVAL   =    1.000    mass and valenz                      
   RCORE  =    1.100    outmost cutoff radius                                   
   RWIGS  =    0.700; RWIGS  =    0.370    wigner-seitz radius (au A)           
   ENMAX  =  250.000; ENMIN  =  200.000 eV                                      
   RCLOC  =    0.701    cutoff for local pot                                    
   LCOR   =        T    correct aug charges                                     
   LPAW   =        T    paw PP                                                  
   EAUG   =  400.000                                                            
   RMAX   =    1.123    core radius for proj-oper                               
   RAUG   =    1.200    factor for augmentation sphere                          
   RDEP   =    1.112    radius for radial grids                                 
   RDEPT  =    0.926    core radius for aug-charge                              
                                                                                
   Atomic configuration                                                         
    2 entries                                                                   
     n  l   j            E        occ.                                          
     1  0  0.50        -6.4927   1.0000                                         
     2  1  0.50        -3.4015   0.0000                                         
   Description                                                                  
     l       E           TYP  RCUT    TYP  RCUT                                 
     0     -6.4927494     23  1.100                                             
     0      6.8029130     23  1.100                                             
     1     -4.0817478     23  1.100                                             
  local pseudopotential read in
  atomic valenz-charges read in
  non local Contribution for L=           0  read in
    real space projection operators read in
  non local Contribution for L=           0  read in
    real space projection operators read in
  non local Contribution for L=           1  read in
    real space projection operators read in
    PAW grid and wavefunctions read in

   number of l-projection  operators is LMAX  =           3
   number of lm-projection operators is LMMAX =           5

 POTCAR:    PAW_PBE N 08Apr2002                   
   VRHFIN =N: s2p3                                                              
   LEXCH  = PE                                                                  
   EATOM  =   264.5486 eV,   19.4438 Ry                                         
                                                                                
   TITEL  = PAW_PBE N 08Apr2002                                                 
   LULTRA =        F    use ultrasoft PP ?                                      
   IUNSCR =        1    unscreen: 0-lin 1-nonlin 2-no                           
   RPACOR =    1.200    partial core radius                                     
   POMASS =   14.001; ZVAL   =    5.000    mass and valenz                      
   RCORE  =    1.500    outmost cutoff radius                                   
   RWIGS  =    1.400; RWIGS  =    0.741    wigner-seitz radius (au A)           
   ENMAX  =  400.000; ENMIN  =  300.000 eV                                      
   ICORE  =        2    local potential                                         
   LCOR   =        T    correct aug charges                                     
   LPAW   =        T    paw PP                                                  
   EAUG   =  627.112                                                            
   DEXC   =    0.000                                                            
   RMAX   =    1.529    core radius for proj-oper                               
   RAUG   =    1.300    factor for augmentation sphere                          
   RDEP   =    1.514    radius for radial grids                                 
   RDEPT  =    1.338    core radius for aug-charge                              
                                                                                
   Atomic configuration                                                         
    4 entries                                                                   
     n  l   j            E        occ.                                          
     1  0  0.50      -384.7179   2.0000                                         
     2  0  0.50       -18.5828   2.0000                                         
     2  1  0.50        -7.0898   3.0000                                         
     3  2  1.50        -6.8029   0.0000                                         
   Description                                                                  
     l       E           TYP  RCUT    TYP  RCUT                                 
     0    -18.5828119     23  1.200                                             
     0    -13.5018863     23  1.200                                             
     1     -7.0897853     23  1.500                                             
     1      9.5240782     23  1.500                                             
     2     -6.8029130      7  1.500                                             
  local pseudopotential read in
  partial core-charges read in
  partial kinetic energy density read in
  atomic valenz-charges read in
  non local Contribution for L=           0  read in
    real space projection operators read in
  non local Contribution for L=           0  read in
    real space projection operators read in
  non local Contribution for L=           1  read in
    real space projection operators read in
  non local Contribution for L=           1  read in
    real space projection operators read in
    PAW grid and wavefunctions read in

   number of l-projection  operators is LMAX  =           4
   number of lm-projection operators is LMMAX =           8

  PAW_PBE H 15Jun2001                   :
 energy of atom  1       EATOM=  -12.4884
 kinetic energy error for atom=    0.0098 (will be added to EATOM!!)
  PAW_PBE N 08Apr2002                   :
 energy of atom  2       EATOM= -264.5486
 kinetic energy error for atom=    0.0736 (will be added to EATOM!!)


 POSCAR: # Compound: H3N. Old comment: H3N       
  positions in direct lattice
  No initial velocities read in
 exchange correlation table for  LEXCH =        8
   RHO(1)=    0.500       N(1)  =     2000
   RHO(2)=  100.500       N(2)  =     4000

 VTST: version 3.2, (02/03/18)

 CHAIN: initializing optimizer
 
 OPT: Using LBFGS optimizer
 OPT: LBFGS, Init
 OPT: LBFGS, MEMORY             20
 OPT: LBFGS, IMAGES              3
 OPT: LBFGS, MAXMOVE      0.200000
 OPT: LBFGS, LGLOBAL      T
 OPT: LBFGS, INVCURV      0.010000
 OPT: LBFGS, LLINEOPT      F
 OPT: LBFGS, FDSTEP       0.005000
 OPT: LBFGS, LAUTOSCALE      T
 OPT: LBFGS, DAMPING      2.000000
 
 CHAIN: Read ICHAIN            0
 CHAIN: Running the NEB
 NEB:          SPRING     -5.000000
 NEB:          LCLIMB      T
 NEB:     LTANGENTOLD      F
 NEB:           LDNEB      F
 NEB:        LDNEBORG      F
 NEB:        LNEBCELL      F
 NEB:          EFIRST      0.000000
 NEB:           ELAST      0.000000

 POSCAR: # Compound: H3N. Old comment: H3N       
  positions in direct lattice
  No initial velocities read in

 POSCAR: # Compound: H3N. Old comment: H3N       
  positions in direct lattice
  No initial velocities read in



--------------------------------------------------------------------------------------------------------


 ion  position               nearest neighbor table
   1  0.636  0.567  0.475-   4 0.97
   2  0.500  0.365  0.475-   4 0.97
   3  0.364  0.567  0.475-   4 0.97
   4  0.500  0.500  0.500-   1 0.97   3 0.97   2 0.97

  LATTYP: Found a simple orthorhombic cell.
 ALAT       =     6.0000000000
 B/A-ratio  =     1.1666666667
 C/A-ratio  =     1.3333333333
  
  Lattice vectors:
  
 A1 = (   6.0000000000,   0.0000000000,   0.0000000000)
 A2 = (   0.0000000000,   7.0000000000,   0.0000000000)
 A3 = (   0.0000000000,   0.0000000000,   8.0000000000)


Analysis of symmetry for initial positions (statically):
=====================================================================
 Subroutine PRICEL returns:
 Original cell was already a primitive cell.
 

 Routine SETGRP: Setting up the symmetry group for a 
 simple orthorhombic supercell.


 Subroutine GETGRP returns: Found  2 space group operations
 (whereof  2 operations were pure point group operations)
 out of a pool of  8 trial point group operations.


The static configuration has the point symmetry C_1h.


Analysis of symmetry for dynamics (positions and initial velocities):
=====================================================================
 Subroutine PRICEL returns:
 Original cell was already a primitive cell.
 

 Routine SETGRP: Setting up the symmetry group for a 
 simple orthorhombic supercell.


 Subroutine GETGRP returns: Found  2 space group operations
 (whereof  2 operations were pure point group operations)
 out of a pool of  8 trial point group operations.


The dynamic configuration has the point symmetry C_1h.


 Subroutine INISYM returns: Found  2 space group operations
 (whereof  2 operations are pure point group operations),
 and found     1 'primitive' translations



 KPOINTS: # No comment                            

Automatic generation of k-mesh.
Space group operators:
 irot       det(A)        alpha          n_x          n_y          n_z        tau_x        tau_y        tau_z
    1     1.000000     0.000000     1.000000     0.000000     0.000000     0.000000     0.000000     0.000000
    2    -1.000000   180.000000     1.000000     0.000000     0.000000     0.000000     0.000000     0.000000
 
 Subroutine IBZKPT returns following result:
 ===========================================
 
 Found      1 irreducible k-points:
 
 Following reciprocal coordinates:
            Coordinates               Weight
  0.000000  0.000000  0.000000      1.000000
 
 Following cartesian coordinates:
            Coordinates               Weight
  0.000000  0.000000  0.000000      1.000000
 


--------------------------------------------------------------------------------------------------------




 Dimension of arrays:
   k-points           NKPTS =      1   k-points in BZ     NKDIM =      1   number of bands    NBANDS=      8
   number of dos      NEDOS =    301   number of ions     NIONS =      4
   non local maximal  LDIM  =      4   non local SUM 2l+1 LMDIM =      8
   total plane-waves  NPLWV =  43200
   max r-space proj   IRMAX =      1   max aug-charges    IRDMAX=   1781
   dimension x,y,z NGX =    30 NGY =   36 NGZ =   40
   dimension x,y,z NGXF=    60 NGYF=   72 NGZF=   80
   support grid    NGXF=    60 NGYF=   72 NGZF=   80
   ions per type =               3   1
   NGX,Y,Z   is equivalent  to a cutoff of   8.31,  8.55,  8.31 a.u.
   NGXF,Y,Z  is equivalent  to a cutoff of  16.62, 17.10, 16.62 a.u.

 SYSTEM =  unknown system                          
 POSCAR =  # Compound: H3N. Old comment: H3N       

 Startparameter for this run:
   NWRITE =      2    write-flag & timer
   PREC   = normal    normal or accurate (medium, high low for compatibility)
   ISTART =      1    job   : 0-new  1-cont  2-samecut
   ICHARG =      0    charge: 1-file 2-atom 10-const
   ISPIN  =      1    spin polarized calculation?
   LNONCOLLINEAR =      F non collinear calculations
   LSORBIT =      F    spin-orbit coupling
   INIWAV =      1    electr: 0-lowe 1-rand  2-diag
   LASPH  =      F    aspherical Exc in radial PAW
   METAGGA=      F    non-selfconsistent MetaGGA calc.

 Electronic Relaxation 1
   ENCUT  =  400.0 eV  29.40 Ry    5.42 a.u.   9.78 11.42 13.05*2*pi/ulx,y,z
   ENINI  =  400.0     initial cutoff
   ENAUG  =  627.1 eV  augmentation charge cutoff
   NELM   =     60;   NELMIN=  2; NELMDL=  0     # of ELM steps 
   EDIFF  = 0.1E-05   stopping-criterion for ELM
   LREAL  =      F    real-space projection
   NLSPLINE    = F    spline interpolate recip. space projectors
   LCOMPAT=      F    compatible to vasp.4.4
   GGA_COMPAT  = T    GGA compatible to vasp.4.4-vasp.4.6
   LMAXPAW     = -100 max onsite density
   LMAXMIX     =    2 max onsite mixed and CHGCAR
   VOSKOWN=      0    Vosko Wilk Nusair interpolation
   ROPT   =    0.00000   0.00000
 Ionic relaxation
   EDIFFG = -.3E-01   stopping-criterion for IOM
   NSW    =     50    number of steps for IOM
   NBLOCK =      1;   KBLOCK =     50    inner block; outer block 
   IBRION =      3    ionic relax: 0-MD 1-quasi-New 2-CG
   NFREE  =      0    steps in history (QN), initial steepest desc. (CG)
   ISIF   =      2    stress and relaxation
   IWAVPR =     11    prediction:  0-non 1-charg 2-wave 3-comb
   ISYM   =      2    0-nonsym 1-usesym 2-fastsym
   LCORR  =      T    Harris-Foulkes like correction to forces

   POTIM  = 0.0000    time-step for ionic-motion
   TEIN   =    0.0    initial temperature
   TEBEG  =    0.0;   TEEND  =   0.0 temperature during run
   SMASS  =  -3.00    Nose mass-parameter (am)
   estimated Nose-frequenzy (Omega)   =  0.10E-29 period in steps =  0.00 mass=  -0.823E-27a.u.
   SCALEE = 1.0000    scale energy and forces
   NPACO  =    256;   APACO  = 16.0  distance and # of slots for P.C.
   PSTRESS=    0.0 pullay stress

  Mass of Ions in am
   POMASS =   1.00 14.00
  Ionic Valenz
   ZVAL   =   1.00  5.00
  Atomic Wigner-Seitz radii
   RWIGS  =  -1.00 -1.00
  virtual crystal weights 
   VCA    =   1.00  1.00
   NELECT =       8.0000    total number of electrons
   NUPDOWN=      -1.0000    fix difference up-down

 DOS related values:
   EMIN   =  10.00;   EMAX   =-10.00  energy-range for DOS
   EFERMI =   0.00
   ISMEAR =     1;   SIGMA  =   0.20  broadening in eV -4-tet -1-fermi 0-gaus

 Electronic relaxation 2 (details)
   IALGO  =     38    algorithm
   LDIAG  =      T    sub-space diagonalisation (order eigenvalues)
   LSUBROT=      F    optimize rotation matrix (better conditioning)
   TURBO    =      0    0=normal 1=particle mesh
   IRESTART =      0    0=no restart 2=restart with 2 vectors
   NREBOOT  =      0    no. of reboots
   NMIN     =      0    reboot dimension
   EREF     =   0.00    reference energy to select bands
   IMIX   =      4    mixing-type and parameters
     AMIX     =   0.40;   BMIX     =  1.00
     AMIX_MAG =   1.60;   BMIX_MAG =  1.00
     AMIN     =   0.10
     WC   =   100.;   INIMIX=   1;  MIXPRE=   1;  MAXMIX= -45

 Intra band minimization:
   WEIMIN = 0.0010     energy-eigenvalue tresh-hold
   EBREAK =  0.31E-07  absolut break condition
   DEPER  =   0.30     relativ break condition  

   TIME   =   0.40     timestep for ELM

  volume/ion in A,a.u.               =      84.00       566.86
  Fermi-wavevector in a.u.,A,eV,Ry     =   0.470968  0.890001  3.017925  0.221811
  Thomas-Fermi vector in A             =   1.463355

 Write flags
   LWAVE        =      T    write WAVECAR
   LDOWNSAMPLE  =      F    k-point downsampling of WAVECAR
   LCHARG       =      T    write CHGCAR
   LVTOT        =      F    write LOCPOT, total local potential
   LVHAR        =      F    write LOCPOT, Hartree potential only
   LELF         =      F    write electronic localiz. function (ELF)
   LORBIT       =      0    0 simple, 1 ext, 2 COOP (PROOUT), +10 PAW based schemes


 Dipole corrections
   LMONO  =      F    monopole corrections only (constant potential shift)
   LDIPOL =      F    correct potential (dipole corrections)
   IDIPOL =      0    1-x, 2-y, 3-z, 4-all directions 
   EPSILON=  1.0000000 bulk dielectric constant

 Exchange correlation treatment:
   GGA     =    --    GGA type
   LEXCH   =     8    internal setting for exchange type
   VOSKOWN=      0    Vosko Wilk Nusair interpolation
   LHFCALC =     F    Hartree Fock is set to
   LHFONE  =     F    Hartree Fock one center treatment
   AEXX    =    0.0000 exact exchange contribution

 Linear response parameters
   LEPSILON=     F    determine dielectric tensor
   LRPA    =     F    only Hartree local field effects (RPA)
   LNABLA  =     F    use nabla operator in PAW spheres
   LVEL    =     F    velocity operator in full k-point grid
   LINTERFAST=   F  fast interpolation
   KINTER  =     0    interpolate to denser k-point grid
   CSHIFT  =0.1000    complex shift for real part using Kramers Kronig
   OMEGAMAX=  -1.0    maximum frequency
   DEG_THRESHOLD= 0.2000000E-02 threshold for treating states as degnerate
   RTIME   =   -0.100 relaxation time in fs
  (WPLASMAI=    0.000 imaginary part of plasma frequency in eV, 0.658/RTIME)
   DFIELD  = 0.0000000 0.0000000 0.0000000 field for delta impulse in time

 Orbital magnetization related:
   ORBITALMAG=     F  switch on orbital magnetization
   LCHIMAG   =     F  perturbation theory with respect to B field
   DQ        =  0.001000  dq finite difference perturbation B field
   LLRAUG    =     F  two centre corrections for induced B field



--------------------------------------------------------------------------------------------------------


 quickmin algorithm: (dynamic with friction)
 charge density and potential will be updated during run
 non-spin polarized calculation
 Variant of blocked Davidson
 Davidson routine will perform the subspace rotation
 perform sub-space diagonalisation
    after iterative eigenvector-optimisation
 modified Broyden-mixing scheme, WC =      100.0
 initial mixing is a Kerker type mixing with AMIX =  0.4000 and BMIX =      1.0000
 Hartree-type preconditioning will be used
 using additional bands            4
 reciprocal scheme for non local part
 use partial core corrections
 calculate Harris-corrections to forces   (improved forces if not selfconsistent)
 use gradient corrections 
 use of overlap-Matrix (Vanderbilt PP)
 Methfessel and Paxton  Order N= 1 SIGMA  =   0.20


--------------------------------------------------------------------------------------------------------


  energy-cutoff  :      400.00
  volume of cell :      336.00
      direct lattice vectors                 reciprocal lattice vectors
     6.000000000  0.000000000  0.000000000     0.166666667  0.000000000  0.000000000
     0.000000000  7.000000000  0.000000000     0.000000000  0.142857143  0.000000000
     0.000000000  0.000000000  8.000000000     0.000000000  0.000000000  0.125000000

  length of vectors
     6.000000000  7.000000000  8.000000000     0.166666667  0.142857143  0.125000000



 old parameters found on file WAVECAR:
  energy-cutoff  :      400.00
  volume of cell :      336.00
      direct lattice vectors                 reciprocal lattice vectors
     6.000000000  0.000000000  0.000000000     0.166666667  0.000000000  0.000000000
     0.000000000  7.000000000  0.000000000     0.000000000  0.142857143  0.000000000
     0.000000000  0.000000000  8.000000000     0.000000000  0.000000000  0.125000000

  length of vectors


 k-points in units of 2pi/SCALE and weight: # No comment                            
   0.00000000  0.00000000  0.00000000       1.000

 k-points in reciprocal lattice and weights: # No comment                            
   0.00000000  0.00000000  0.00000000       1.000

 position of ions in fractional coordinates (direct lattice) 
   0.63642800  0.56745700  0.47541775
   0.50000000  0.36498500  0.47543350
   0.36357200  0.56745700  0.47541775
   0.50000000  0.50000000  0.50000000

 position of ions in cartesian coordinates  (Angst):
   3.81856800  3.97219900  3.80334200
   3.00000000  2.55489500  3.80346800
   2.18143200  3.97219900  3.80334200
   3.00000000  3.50000000  4.00000000



--------------------------------------------------------------------------------------------------------


 k-point  1 :   0.0000 0.0000 0.0000  plane waves:    6075

 maximum and minimum number of plane-waves per node :      6075     6075

 maximum number of plane-waves:      6075
 maximum index in each direction: 
   IXMAX=    9   IYMAX=   11   IZMAX=   13
   IXMIN=   -9   IYMIN=  -11   IZMIN=  -13


 serial   3D FFT for wavefunctions
 parallel 3D FFT for charge:
    minimum data exchange during FFTs selected (reduces bandwidth)


 total amount of memory used by VASP MPI-rank0    49277. kBytes
=======================================================================

   base      :      30000. kBytes
   nonl-proj :       1166. kBytes
   fftplans  :       6115. kBytes
   grid      :      11594. kBytes
   one-center:         12. kBytes
   wavefun   :        390. kBytes

     INWAV:  cpu time    0.0000: real time    0.0023
 Broyden mixing: mesh for mixing (old mesh)
   NGX = 19   NGY = 23   NGZ = 27
  (NGX  = 60   NGY  = 72   NGZ  = 80)
  gives a total of  11799 points

 charge density for first step will be calculated from the start-wavefunctions


--------------------------------------------------------------------------------------------------------


 Maximum index for augmentation-charges          767 (set IRDMAX)


--------------------------------------------------------------------------------------------------------


 initial charge from wavefunction
 First call to EWALD:  gamma=   0.255
 Maximum number of real-space cells 3x 3x 2
 Maximum number of reciprocal cells 2x 3x 3

    FEWALD:  cpu time    0.0000: real time    0.0010


--------------------------------------- Iteration      1(   1)  ---------------------------------------


    POTLOK:  cpu time    0.1406: real time    0.1423
    SETDIJ:  cpu time    0.0000: real time    0.0035
     EDDAV:  cpu time    0.0938: real time    0.0813
       DOS:  cpu time    0.0000: real time    0.0003
    CHARGE:  cpu time    0.0156: real time    0.0182
    MIXING:  cpu time    0.0000: real time    0.0048
    --------------------------------------------
      LOOP:  cpu time    0.2500: real time    0.2504

 eigenvalue-minimisations  :    32
 total energy-change (2. order) :-0.1968417E+02  (-0.7322793E+00)
 number of electron       8.0000067 magnetization 
 augmentation part        0.3820338 magnetization 

 Broyden mixing:
  rms(total) = 0.42524E+00    rms(broyden)= 0.42503E+00
  rms(prec ) = 0.61052E+00
  weight for this iteration     100.00

 Free energy of the ion-electron system (eV)
  ---------------------------------------------------
  alpha Z        PSCENC =         0.68708806
  Ewald energy   TEWEN  =        68.73219124
  -Hartree energ DENC   =      -307.42380242
  -exchange      EXHF   =         0.00000000
  -V(xc)+E(xc)   XCENC  =        28.78711567
  PAW double counting   =       656.53344092     -658.12570224
  entropy T*S    EENTRO =         0.01159581
  eigenvalues    EBANDS =      -110.79700145
  atomic energy  EATOM  =       301.91090041
  Solvation  Ediel_sol  =         0.00000000
  ---------------------------------------------------
  free energy    TOTEN  =       -19.68417400 eV

  energy without entropy =      -19.69576982  energy(sigma->0) =      -19.68803927


--------------------------------------------------------------------------------------------------------




--------------------------------------- Iteration      1(   2)  ---------------------------------------


    POTLOK:  cpu time    0.1250: real time    0.1218
    SETDIJ:  cpu time    0.0000: real time    0.0033
     EDDAV:  cpu time    0.0312: real time    0.0358
       DOS:  cpu time    0.0000: real time    0.0001
    CHARGE:  cpu time    0.0156: real time    0.0124
    MIXING:  cpu time    0.0156: real time    0.0040
    --------------------------------------------
      LOOP:  cpu time    0.1875: real time    0.1774

 eigenvalue-minimisations  :    16
 total energy-change (2. order) : 0.4564556E+00  (-0.2445397E+00)
 number of electron       8.0000063 magnetization 
 augmentation part        0.3420563 magnetization 

 Broyden mixing:
  rms(total) = 0.32317E-01    rms(broyden)= 0.31870E-01
  rms(prec ) = 0.49894E-01
  weight for this iteration     100.00

 eigenvalues of (default mixing * dielectric matrix)
  average eigenvalue GAMMA=   1.0549
  1.0549

 Free energy of the ion-electron system (eV)
  ---------------------------------------------------
  alpha Z        PSCENC =         0.68708806
  Ewald energy   TEWEN  =        68.73219124
  -Hartree energ DENC   =      -316.78391289
  -exchange      EXHF   =         0.00000000
  -V(xc)+E(xc)   XCENC  =        29.30007935
  PAW double counting   =       651.68321940     -653.36979120
  entropy T*S    EENTRO =         0.01159581
  eigenvalues    EBANDS =      -101.39908855
  atomic energy  EATOM  =       301.91090041
  Solvation  Ediel_sol  =         0.00000000
  ---------------------------------------------------
  free energy    TOTEN  =       -19.22771837 eV

  energy without entropy =      -19.23931418  energy(sigma->0) =      -19.23158364


--------------------------------------------------------------------------------------------------------




--------------------------------------- Iteration      1(   3)  ---------------------------------------


    POTLOK:  cpu time    0.1094: real time    0.1166
    SETDIJ:  cpu time    0.0000: real time    0.0032
     EDDAV:  cpu time    0.0781: real time    0.0694
       DOS:  cpu time    0.0000: real time    0.0003
    CHARGE:  cpu time    0.0000: real time    0.0142
    MIXING:  cpu time    0.0156: real time    0.0079
    --------------------------------------------
      LOOP:  cpu time    0.2031: real time    0.2117

 eigenvalue-minimisations  :    32
 total energy-change (2. order) : 0.2026685E-03  (-0.2956987E-02)
 number of electron       8.0000063 magnetization 
 augmentation part        0.3398102 magnetization 

 Broyden mixing:
  rms(total) = 0.16950E-01    rms(broyden)= 0.16871E-01
  rms(prec ) = 0.23375E-01
  weight for this iteration     100.00

 eigenvalues of (default mixing * dielectric matrix)
  average eigenvalue GAMMA=   0.9064
  0.9064  0.9064

 Free energy of the ion-electron system (eV)
  ---------------------------------------------------
  alpha Z        PSCENC =         0.68708806
  Ewald energy   TEWEN  =        68.73219124
  -Hartree energ DENC   =      -317.81161615
  -exchange      EXHF   =         0.00000000
  -V(xc)+E(xc)   XCENC  =        29.35892787
  PAW double counting   =       647.67264978     -649.35885909
  entropy T*S    EENTRO =         0.01159581
  eigenvalues    EBANDS =      -100.43039362
  atomic energy  EATOM  =       301.91090041
  Solvation  Ediel_sol  =         0.00000000
  ---------------------------------------------------
  free energy    TOTEN  =       -19.22751571 eV

  energy without entropy =      -19.23911152  energy(sigma->0) =      -19.23138098


--------------------------------------------------------------------------------------------------------




--------------------------------------- Iteration      1(   4)  ---------------------------------------


    POTLOK:  cpu time    0.1094: real time    0.1275
    SETDIJ:  cpu time    0.0000: real time    0.0039
     EDDAV:  cpu time    0.0469: real time    0.0436
       DOS:  cpu time    0.0000: real time    0.0002
    CHARGE:  cpu time    0.0156: real time    0.0149
    MIXING:  cpu time    0.0156: real time    0.0086
    --------------------------------------------
      LOOP:  cpu time    0.1875: real time    0.1986

 eigenvalue-minimisations  :    16
 total energy-change (2. order) : 0.2061050E-03  (-0.1482960E-04)
 number of electron       8.0000063 magnetization 
 augmentation part        0.3399455 magnetization 

 Broyden mixing:
  rms(total) = 0.93157E-02    rms(broyden)= 0.93111E-02
  rms(prec ) = 0.15056E-01
  weight for this iteration     100.00

 eigenvalues of (default mixing * dielectric matrix)
  average eigenvalue GAMMA=   1.4525
  1.0017  1.0396  2.3161

 Free energy of the ion-electron system (eV)
  ---------------------------------------------------
  alpha Z        PSCENC =         0.68708806
  Ewald energy   TEWEN  =        68.73219124
  -Hartree energ DENC   =      -317.99759504
  -exchange      EXHF   =         0.00000000
  -V(xc)+E(xc)   XCENC  =        29.37079043
  PAW double counting   =       648.94708677     -650.63030091
  entropy T*S    EENTRO =         0.01159581
  eigenvalues    EBANDS =      -100.25906637
  atomic energy  EATOM  =       301.91090041
  Solvation  Ediel_sol  =         0.00000000
  ---------------------------------------------------
  free energy    TOTEN  =       -19.22730960 eV

  energy without entropy =      -19.23890541  energy(sigma->0) =      -19.23117487


--------------------------------------------------------------------------------------------------------




--------------------------------------- Iteration      1(   5)  ---------------------------------------


    POTLOK:  cpu time    0.1094: real time    0.1322
    SETDIJ:  cpu time    0.0000: real time    0.0038
     EDDAV:  cpu time    0.0469: real time    0.0458
       DOS:  cpu time    0.0000: real time    0.0002
    CHARGE:  cpu time    0.0156: real time    0.0127
    MIXING:  cpu time    0.0156: real time    0.0058
    --------------------------------------------
      LOOP:  cpu time    0.1875: real time    0.2005

 eigenvalue-minimisations  :    16
 total energy-change (2. order) : 0.6652437E-04  (-0.4600240E-04)
 number of electron       8.0000063 magnetization 
 augmentation part        0.3398732 magnetization 

 Broyden mixing:
  rms(total) = 0.31561E-02    rms(broyden)= 0.31548E-02
  rms(prec ) = 0.51947E-02
  weight for this iteration     100.00

 eigenvalues of (default mixing * dielectric matrix)
  average eigenvalue GAMMA=   1.6975
  2.6663  1.0431  1.0431  2.0374

 Free energy of the ion-electron system (eV)
  ---------------------------------------------------
  alpha Z        PSCENC =         0.68708806
  Ewald energy   TEWEN  =        68.73219124
  -Hartree energ DENC   =      -318.48678395
  -exchange      EXHF   =         0.00000000
  -V(xc)+E(xc)   XCENC  =        29.39972255
  PAW double counting   =       650.54034021     -652.21861004
  entropy T*S    EENTRO =         0.01159581
  eigenvalues    EBANDS =       -99.80368736
  atomic energy  EATOM  =       301.91090041
  Solvation  Ediel_sol  =         0.00000000
  ---------------------------------------------------
  free energy    TOTEN  =       -19.22724308 eV

  energy without entropy =      -19.23883889  energy(sigma->0) =      -19.23110835


--------------------------------------------------------------------------------------------------------




--------------------------------------- Iteration      1(   6)  ---------------------------------------


    POTLOK:  cpu time    0.1094: real time    0.1214
    SETDIJ:  cpu time    0.0000: real time    0.0022
     EDDAV:  cpu time    0.0469: real time    0.0485
       DOS:  cpu time    0.0000: real time    0.0001
    CHARGE:  cpu time    0.0156: real time    0.0127
    MIXING:  cpu time    0.0156: real time    0.0063
    --------------------------------------------
      LOOP:  cpu time    0.1875: real time    0.1911

 eigenvalue-minimisations  :    16
 total energy-change (2. order) :-0.3508574E-03  (-0.1125218E-04)
 number of electron       8.0000063 magnetization 
 augmentation part        0.3396648 magnetization 

 Broyden mixing:
  rms(total) = 0.99600E-03    rms(broyden)= 0.99410E-03
  rms(prec ) = 0.20933E-02
  weight for this iteration     100.00

 eigenvalues of (default mixing * dielectric matrix)
  average eigenvalue GAMMA=   1.7451
  3.1489  2.5494  1.0520  1.0520  0.9233

 Free energy of the ion-electron system (eV)
  ---------------------------------------------------
  alpha Z        PSCENC =         0.68708806
  Ewald energy   TEWEN  =        68.73219124
  -Hartree energ DENC   =      -318.64117020
  -exchange      EXHF   =         0.00000000
  -V(xc)+E(xc)   XCENC  =        29.40515602
  PAW double counting   =       649.02117811     -650.69963657
  entropy T*S    EENTRO =         0.01159581
  eigenvalues    EBANDS =       -99.65489680
  atomic energy  EATOM  =       301.91090041
  Solvation  Ediel_sol  =         0.00000000
  ---------------------------------------------------
  free energy    TOTEN  =       -19.22759393 eV

  energy without entropy =      -19.23918974  energy(sigma->0) =      -19.23145920


--------------------------------------------------------------------------------------------------------




--------------------------------------- Iteration      1(   7)  ---------------------------------------


    POTLOK:  cpu time    0.1094: real time    0.1199
    SETDIJ:  cpu time    0.0156: real time    0.0033
     EDDAV:  cpu time    0.0469: real time    0.0519
       DOS:  cpu time    0.0000: real time    0.0001
    CHARGE:  cpu time    0.0000: real time    0.0093
    MIXING:  cpu time    0.0156: real time    0.0048
    --------------------------------------------
      LOOP:  cpu time    0.1875: real time    0.1894

 eigenvalue-minimisations  :    24
 total energy-change (2. order) :-0.1268031E-03  (-0.2349288E-05)
 number of electron       8.0000063 magnetization 
 augmentation part        0.3397561 magnetization 

 Broyden mixing:
  rms(total) = 0.60886E-03    rms(broyden)= 0.60881E-03
  rms(prec ) = 0.10762E-02
  weight for this iteration     100.00

 eigenvalues of (default mixing * dielectric matrix)
  average eigenvalue GAMMA=   1.8738
  3.9063  2.3717  1.9588  1.0497  1.0497  0.9064

 Free energy of the ion-electron system (eV)
  ---------------------------------------------------
  alpha Z        PSCENC =         0.68708806
  Ewald energy   TEWEN  =        68.73219124
  -Hartree energ DENC   =      -318.64631104
  -exchange      EXHF   =         0.00000000
  -V(xc)+E(xc)   XCENC  =        29.40421225
  PAW double counting   =       648.65603021     -650.33431211
  entropy T*S    EENTRO =         0.01159581
  eigenvalues    EBANDS =       -99.64911556
  atomic energy  EATOM  =       301.91090041
  Solvation  Ediel_sol  =         0.00000000
  ---------------------------------------------------
  free energy    TOTEN  =       -19.22772074 eV

  energy without entropy =      -19.23931655  energy(sigma->0) =      -19.23158601


--------------------------------------------------------------------------------------------------------




--------------------------------------- Iteration      1(   8)  ---------------------------------------


    POTLOK:  cpu time    0.1250: real time    0.1212
    SETDIJ:  cpu time    0.0000: real time    0.0034
     EDDAV:  cpu time    0.0312: real time    0.0327
       DOS:  cpu time    0.0000: real time    0.0001
    CHARGE:  cpu time    0.0000: real time    0.0081
    MIXING:  cpu time    0.0156: real time    0.0045
    --------------------------------------------
      LOOP:  cpu time    0.1719: real time    0.1699

 eigenvalue-minimisations  :    16
 total energy-change (2. order) :-0.9270754E-04  (-0.7364011E-06)
 number of electron       8.0000063 magnetization 
 augmentation part        0.3397608 magnetization 

 Broyden mixing:
  rms(total) = 0.25801E-03    rms(broyden)= 0.25795E-03
  rms(prec ) = 0.50922E-03
  weight for this iteration     100.00

 eigenvalues of (default mixing * dielectric matrix)
  average eigenvalue GAMMA=   2.0319
  4.7206  2.9803  2.1966  1.2899  1.0526  1.0526  0.9308

 Free energy of the ion-electron system (eV)
  ---------------------------------------------------
  alpha Z        PSCENC =         0.68708806
  Ewald energy   TEWEN  =        68.73219124
  -Hartree energ DENC   =      -318.66170887
  -exchange      EXHF   =         0.00000000
  -V(xc)+E(xc)   XCENC  =        29.40462840
  PAW double counting   =       648.89588781     -650.57413833
  entropy T*S    EENTRO =         0.01159581
  eigenvalues    EBANDS =       -99.63425798
  atomic energy  EATOM  =       301.91090041
  Solvation  Ediel_sol  =         0.00000000
  ---------------------------------------------------
  free energy    TOTEN  =       -19.22781344 eV

  energy without entropy =      -19.23940925  energy(sigma->0) =      -19.23167871


--------------------------------------------------------------------------------------------------------




--------------------------------------- Iteration      1(   9)  ---------------------------------------


    POTLOK:  cpu time    0.1250: real time    0.1322
    SETDIJ:  cpu time    0.0156: real time    0.0033
     EDDAV:  cpu time    0.0156: real time    0.0358
       DOS:  cpu time    0.0000: real time    0.0001
    CHARGE:  cpu time    0.0000: real time    0.0090
    MIXING:  cpu time    0.0156: real time    0.0053
    --------------------------------------------
      LOOP:  cpu time    0.1719: real time    0.1857

 eigenvalue-minimisations  :    16
 total energy-change (2. order) :-0.3842088E-04  (-0.4247780E-06)
 number of electron       8.0000063 magnetization 
 augmentation part        0.3397344 magnetization 

 Broyden mixing:
  rms(total) = 0.16703E-03    rms(broyden)= 0.16693E-03
  rms(prec ) = 0.25091E-03
  weight for this iteration     100.00

 eigenvalues of (default mixing * dielectric matrix)
  average eigenvalue GAMMA=   2.1854
  5.4334  3.3442  2.5493  2.0564  1.0646  1.0646  0.9556  1.0149

 Free energy of the ion-electron system (eV)
  ---------------------------------------------------
  alpha Z        PSCENC =         0.68708806
  Ewald energy   TEWEN  =        68.73219124
  -Hartree energ DENC   =      -318.66362055
  -exchange      EXHF   =         0.00000000
  -V(xc)+E(xc)   XCENC  =        29.40446564
  PAW double counting   =       648.94037213     -650.61878312
  entropy T*S    EENTRO =         0.01159581
  eigenvalues    EBANDS =       -99.63206149
  atomic energy  EATOM  =       301.91090041
  Solvation  Ediel_sol  =         0.00000000
  ---------------------------------------------------
  free energy    TOTEN  =       -19.22785187 eV

  energy without entropy =      -19.23944768  energy(sigma->0) =      -19.23171714


--------------------------------------------------------------------------------------------------------




--------------------------------------- Iteration      1(  10)  ---------------------------------------


    POTLOK:  cpu time    0.1250: real time    0.1278
    SETDIJ:  cpu time    0.0000: real time    0.0027
     EDDAV:  cpu time    0.0312: real time    0.0375
       DOS:  cpu time    0.0000: real time    0.0001
    CHARGE:  cpu time    0.0156: real time    0.0116
    MIXING:  cpu time    0.0000: real time    0.0058
    --------------------------------------------
      LOOP:  cpu time    0.1719: real time    0.1855

 eigenvalue-minimisations  :    16
 total energy-change (2. order) :-0.1323554E-04  (-0.1141066E-06)
 number of electron       8.0000063 magnetization 
 augmentation part        0.3397399 magnetization 

 Broyden mixing:
  rms(total) = 0.58765E-04    rms(broyden)= 0.58758E-04
  rms(prec ) = 0.91727E-04
  weight for this iteration     100.00

 eigenvalues of (default mixing * dielectric matrix)
  average eigenvalue GAMMA=   2.1705
  5.6681  3.4141  2.3476  2.3476  1.6828  1.0611  1.0611  0.9527  0.9993

 Free energy of the ion-electron system (eV)
  ---------------------------------------------------
  alpha Z        PSCENC =         0.68708806
  Ewald energy   TEWEN  =        68.73219124
  -Hartree energ DENC   =      -318.66494598
  -exchange      EXHF   =         0.00000000
  -V(xc)+E(xc)   XCENC  =        29.40455754
  PAW double counting   =       648.96535760     -650.64368346
  entropy T*S    EENTRO =         0.01159581
  eigenvalues    EBANDS =       -99.63092632
  atomic energy  EATOM  =       301.91090041
  Solvation  Ediel_sol  =         0.00000000
  ---------------------------------------------------
  free energy    TOTEN  =       -19.22786510 eV

  energy without entropy =      -19.23946091  energy(sigma->0) =      -19.23173037


--------------------------------------------------------------------------------------------------------




--------------------------------------- Iteration      1(  11)  ---------------------------------------


    POTLOK:  cpu time    0.1406: real time    0.1284
    SETDIJ:  cpu time    0.0000: real time    0.0034
     EDDAV:  cpu time    0.0312: real time    0.0389
       DOS:  cpu time    0.0000: real time    0.0001
    CHARGE:  cpu time    0.0156: real time    0.0124
    MIXING:  cpu time    0.0156: real time    0.0062
    --------------------------------------------
      LOOP:  cpu time    0.2031: real time    0.1894

 eigenvalue-minimisations  :    24
 total energy-change (2. order) :-0.2825942E-05  (-0.2519795E-07)
 number of electron       8.0000063 magnetization 
 augmentation part        0.3397455 magnetization 

 Broyden mixing:
  rms(total) = 0.42864E-04    rms(broyden)= 0.42846E-04
  rms(prec ) = 0.65955E-04
  weight for this iteration     100.00

 eigenvalues of (default mixing * dielectric matrix)
  average eigenvalue GAMMA=   2.2530
  6.1095  4.0162  2.9976  2.3379  1.8613  0.9394  1.0453  1.0453  1.0890  1.0890

 Free energy of the ion-electron system (eV)
  ---------------------------------------------------
  alpha Z        PSCENC =         0.68708806
  Ewald energy   TEWEN  =        68.73219124
  -Hartree energ DENC   =      -318.66263011
  -exchange      EXHF   =         0.00000000
  -V(xc)+E(xc)   XCENC  =        29.40441224
  PAW double counting   =       648.94135707     -650.61967705
  entropy T*S    EENTRO =         0.01159581
  eigenvalues    EBANDS =       -99.63310560
  atomic energy  EATOM  =       301.91090041
  Solvation  Ediel_sol  =         0.00000000
  ---------------------------------------------------
  free energy    TOTEN  =       -19.22786793 eV

  energy without entropy =      -19.23946374  energy(sigma->0) =      -19.23173320


--------------------------------------------------------------------------------------------------------




--------------------------------------- Iteration      1(  12)  ---------------------------------------


    POTLOK:  cpu time    0.1250: real time    0.1260
    SETDIJ:  cpu time    0.0000: real time    0.0034
     EDDAV:  cpu time    0.0312: real time    0.0454
       DOS:  cpu time    0.0000: real time    0.0003
    --------------------------------------------
      LOOP:  cpu time    0.1562: real time    0.1751

 eigenvalue-minimisations  :    16
 total energy-change (2. order) :-0.5636205E-06  (-0.9066135E-08)
 number of electron       8.0000063 magnetization 
 augmentation part        0.3397455 magnetization 

 Free energy of the ion-electron system (eV)
  ---------------------------------------------------
  alpha Z        PSCENC =         0.68708806
  Ewald energy   TEWEN  =        68.73219124
  -Hartree energ DENC   =      -318.66338635
  -exchange      EXHF   =         0.00000000
  -V(xc)+E(xc)   XCENC  =        29.40445196
  PAW double counting   =       648.93193549     -650.61026102
  entropy T*S    EENTRO =         0.01159581
  eigenvalues    EBANDS =       -99.63238410
  atomic energy  EATOM  =       301.91090041
  Solvation  Ediel_sol  =         0.00000000
  ---------------------------------------------------
  free energy    TOTEN  =       -19.22786849 eV

  energy without entropy =      -19.23946430  energy(sigma->0) =      -19.23173376


--------------------------------------------------------------------------------------------------------




 average (electrostatic) potential at core
  the test charge radii are     0.5201  0.7089
  (the norm of the test charge is              1.0000)
       1 -43.5450       2 -43.5414       3 -43.5450       4 -72.3769



 E-fermi :  -5.2040     XC(G=0):  -1.6641     alpha+bet : -0.5051


 k-point     1 :       0.0000    0.0000    0.0000
  band No.  band energies     occupation 
      1     -21.0487      2.00000
      2     -11.6978      2.00000
      3     -11.6973      2.00000
      4      -5.3724      2.00000
      5      -1.0240     -0.00000
      6       1.4957      0.00000
      7       1.6733      0.00000
      8       1.8541      0.00000


--------------------------------------------------------------------------------------------------------


 soft charge-density along one line, spin component           1
         0         1         2         3         4         5         6         7         8         9
 total charge-density along one line

 pseudopotential strength for first ion, spin component:           1
 -2.365  -4.082   0.001  -0.000   0.002
 -4.082  -6.956   0.004  -0.002   0.007
  0.001   0.004  -0.325  -0.001   0.004
 -0.000  -0.002  -0.001  -0.327  -0.002
  0.002   0.007   0.004  -0.002  -0.320
 total augmentation occupancy for first ion, spin component:           1
  4.068  -0.794  -0.343   0.135  -0.594
 -0.794   0.181   0.066  -0.029   0.114
 -0.343   0.066   0.042  -0.008   0.043
  0.135  -0.029  -0.008   0.042  -0.014
 -0.594   0.114   0.043  -0.014   0.092


------------------------ aborting loop because EDIFF is reached ----------------------------------------


    CHARGE:  cpu time    0.0156: real time    0.0087
    FORLOC:  cpu time    0.0000: real time    0.0063
    FORNL :  cpu time    0.0000: real time    0.0060
    STRESS:  cpu time    0.0469: real time    0.0562
    FORCOR:  cpu time    0.1094: real time    0.1070
    FORHAR:  cpu time    0.0469: real time    0.0397
    MIXING:  cpu time    0.0000: real time    0.0076
    OFIELD:  cpu time    0.0000: real time    0.0000

  FORCE on cell =-STRESS in cart. coord.  units (eV):
  Direction    XX          YY          ZZ          XY          YZ          ZX
  --------------------------------------------------------------------------------------
  Alpha Z     0.68709     0.68709     0.68709
  Ewald      88.91554    60.35352   -80.53689    -0.00000    -0.02477     0.00000
  Hartree   139.57228   112.98219    66.10901     0.00000    -0.01507    -0.00000
  E(xc)     -31.30299   -31.30393   -31.69096    -0.00000     0.00002    -0.00000
  Local    -292.66231  -237.52483   -82.60207    -0.00000     0.03721     0.00000
  n-local   -24.16169   -24.15016   -25.89771     0.00000    -0.00024     0.00000
  augment     1.20063     1.20155     2.07739    -0.00000     0.00036     0.00000
  Kinetic   120.20103   120.15647   151.36413    -0.00000     0.01071    -0.00000
  Fock        0.00000     0.00000     0.00000     0.00000     0.00000     0.00000
  -------------------------------------------------------------------------------------
  Total       2.44958     2.40189    -0.49002     0.00000     0.00822     0.00000
  in kB      11.68053    11.45316    -2.33658     0.00000     0.03922     0.00000
  external pressure =        6.93 kB  Pullay stress =        0.00 kB


 VOLUME and BASIS-vectors are now :
 -----------------------------------------------------------------------------
  energy-cutoff  :      400.00
  volume of cell :      336.00
      direct lattice vectors                 reciprocal lattice vectors
     6.000000000  0.000000000  0.000000000     0.166666667  0.000000000  0.000000000
     0.000000000  7.000000000  0.000000000     0.000000000  0.142857143  0.000000000
     0.000000000  0.000000000  8.000000000     0.000000000  0.000000000  0.125000000

  length of vectors
     6.000000000  7.000000000  8.000000000     0.166666667  0.142857143  0.125000000


 FORCES acting on ions
    electron-ion (+dipol)            ewald-force                    non-local-force                 convergence-correction
 -----------------------------------------------------------------------------------------------
   -.622E+02 -.365E+02 0.135E+02   0.715E+02 0.419E+02 -.157E+02   -.729E+01 -.420E+01 0.155E+01   0.130E-04 0.134E-05 -.140E-04
   0.152E-13 0.730E+02 0.135E+02   -.448E-15 -.836E+02 -.157E+02   0.000E+00 0.841E+01 0.154E+01   0.886E-15 -.531E-05 -.125E-04
   0.622E+02 -.365E+02 0.135E+02   -.715E+02 0.419E+02 -.157E+02   0.729E+01 -.420E+01 0.155E+01   -.130E-04 0.134E-05 -.140E-04
   0.971E-13 0.764E-01 -.284E+02   0.951E-16 -.877E-01 0.471E+02   0.000E+00 0.223E-01 -.167E+02   0.703E-14 -.484E-04 -.205E-05
 -----------------------------------------------------------------------------------------------
   0.261E-12 -.272E-01 0.120E+02   0.951E-16 -.555E-16 0.000E+00   0.000E+00 0.276E-01 -.120E+02   0.672E-14 -.511E-04 -.426E-04


 POSITION                                       TOTAL-FORCE (eV/Angst)
 -----------------------------------------------------------------------------------
      3.81857      3.97220      3.80334         1.968244      1.135449     -0.662047
      3.00000      2.55489      3.80347         0.000000     -2.281711     -0.662686
      2.18143      3.97220      3.80334        -1.968244      1.135449     -0.662047
      3.00000      3.50000      4.00000         0.000000      0.010813      1.986779
 -----------------------------------------------------------------------------------
    total drift:                                0.000000      0.000309     -0.000314


--------------------------------------------------------------------------------------------------------



  FREE ENERGIE OF THE ION-ELECTRON SYSTEM (eV)
  ---------------------------------------------------
  free  energy   TOTEN  =       -19.22786849 eV

  energy  without entropy=      -19.23946430  energy(sigma->0) =      -19.23173376



--------------------------------------------------------------------------------------------------------


    POTLOK:  cpu time    0.1094: real time    0.1047


--------------------------------------------------------------------------------------------------------


 NEB: the previous image is higher in energy: T
 NEB: the next image is higher in energy    : F
 NEB: only prev energy greater

 NEB: Tangent
 ----------------------------------------------
     -0.00000     -0.00000     -0.57747
     -0.00000     -0.00000     -0.57710
     -0.00000     -0.00000     -0.57747
     -0.00000     -0.00000     -0.00000

 NEB: forces: par spring, perp REAL, dneb     0.000000    4.413624    0.000000
 NEB: distance to prev, next image, angle between     0.340549    0.340549  180.000000
 NEB: projections on to tangent (spring, REAL)     0.000000    1.147067

 stress matrix after NEB project (eV)
      2.44958      0.00000      0.00000
      0.00000      2.40189      0.00822
      0.00000      0.00822     -0.49002
  FORCES: max atom, RMS     2.281711    2.206812
  FORCE total and by dimension    4.413624    2.281711
  Stress total and by dimension    3.465513    2.449578
 
 OPT: Flag T
 OPT: LBFGS Step
 OPT: LBFGS start
 OPT: LBFGS, initial finite difference
 OPT: LBFGS: positions in Cartesian coordinates
      3.81971063      3.97285816      3.80334221
      3.00000000      2.55357040      3.80346759
      2.18028937      3.97285816      3.80334221
      3.00000000      3.50000628      4.00115339
 OPT: LBFGS END subroutine


--------------------------------------------------------------------------------------------------------


    WAVPRE:  cpu time    0.3750: real time    0.3787
    FEWALD:  cpu time    0.0000: real time    0.0002
    ORTHCH:  cpu time    0.0000: real time    0.0028
     LOOP+:  cpu time    3.0000: real time    3.0487


--------------------------------------- Iteration      2(   1)  ---------------------------------------


    POTLOK:  cpu time    0.1094: real time    0.1131
    SETDIJ:  cpu time    0.0156: real time    0.0031
     EDDAV:  cpu time    0.0469: real time    0.0454
       DOS:  cpu time    0.0000: real time    0.0002
    CHARGE:  cpu time    0.0156: real time    0.0130
    MIXING:  cpu time    0.0000: real time    0.0037
    --------------------------------------------
      LOOP:  cpu time    0.1875: real time    0.1784

 eigenvalue-minimisations  :    16
 total energy-change (2. order) :-0.1115448E-01  (-0.1006119E-02)
 number of electron       8.0000062 magnetization 
 augmentation part        0.3386853 magnetization 

 Broyden mixing:
  rms(total) = 0.43220E-02    rms(broyden)= 0.43085E-02
  rms(prec ) = 0.60511E-02
  weight for this iteration     100.00

 Free energy of the ion-electron system (eV)
  ---------------------------------------------------
  alpha Z        PSCENC =         0.68708806
  Ewald energy   TEWEN  =        68.34905601
  -Hartree energ DENC   =      -318.47855454
  -exchange      EXHF   =         0.00000000
  -V(xc)+E(xc)   XCENC  =        29.39468601
  PAW double counting   =       648.93391053     -650.61224168
  entropy T*S    EENTRO =         0.01159581
  eigenvalues    EBANDS =       -99.43546301
  atomic energy  EATOM  =       301.91090041
  Solvation  Ediel_sol  =         0.00000000
  ---------------------------------------------------
  free energy    TOTEN  =       -19.23902240 eV

  energy without entropy =      -19.25061821  energy(sigma->0) =      -19.24288767


--------------------------------------------------------------------------------------------------------




--------------------------------------- Iteration      2(   2)  ---------------------------------------


    POTLOK:  cpu time    0.0938: real time    0.1064
    SETDIJ:  cpu time    0.0156: real time    0.0037
     EDDAV:  cpu time    0.0469: real time    0.0443
       DOS:  cpu time    0.0000: real time    0.0002
    CHARGE:  cpu time    0.0000: real time    0.0106
    MIXING:  cpu time    0.0156: real time    0.0039
    --------------------------------------------
      LOOP:  cpu time    0.1719: real time    0.1690

 eigenvalue-minimisations  :    16
 total energy-change (2. order) : 0.4137084E-04  (-0.2311522E-04)
 number of electron       8.0000062 magnetization 
 augmentation part        0.3388949 magnetization 

 Broyden mixing:
  rms(total) = 0.20227E-02    rms(broyden)= 0.20215E-02
  rms(prec ) = 0.24885E-02
  weight for this iteration     100.00

 eigenvalues of (default mixing * dielectric matrix)
  average eigenvalue GAMMA=   1.2504
  1.2504

 Free energy of the ion-electron system (eV)
  ---------------------------------------------------
  alpha Z        PSCENC =         0.68708806
  Ewald energy   TEWEN  =        68.34905601
  -Hartree energ DENC   =      -318.38856223
  -exchange      EXHF   =         0.00000000
  -V(xc)+E(xc)   XCENC  =        29.38955532
  PAW double counting   =       648.19485756     -649.87177853
  entropy T*S    EENTRO =         0.01159581
  eigenvalues    EBANDS =       -99.52169344
  atomic energy  EATOM  =       301.91090041
  Solvation  Ediel_sol  =         0.00000000
  ---------------------------------------------------
  free energy    TOTEN  =       -19.23898103 eV

  energy without entropy =      -19.25057684  energy(sigma->0) =      -19.24284630


--------------------------------------------------------------------------------------------------------




--------------------------------------- Iteration      2(   3)  ---------------------------------------


    POTLOK:  cpu time    0.1094: real time    0.1088
    SETDIJ:  cpu time    0.0000: real time    0.0022
     EDDAV:  cpu time    0.0469: real time    0.0579
       DOS:  cpu time    0.0000: real time    0.0003
    CHARGE:  cpu time    0.0156: real time    0.0119
    MIXING:  cpu time    0.0156: real time    0.0071
    --------------------------------------------
      LOOP:  cpu time    0.1875: real time    0.1881

 eigenvalue-minimisations  :    32
 total energy-change (2. order) : 0.3758376E-05  (-0.2827764E-05)
 number of electron       8.0000062 magnetization 
 augmentation part        0.3390050 magnetization 

 Broyden mixing:
  rms(total) = 0.11851E-02    rms(broyden)= 0.11847E-02
  rms(prec ) = 0.13126E-02
  weight for this iteration     100.00

 eigenvalues of (default mixing * dielectric matrix)
  average eigenvalue GAMMA=   1.4148
  1.4148  1.4148

 Free energy of the ion-electron system (eV)
  ---------------------------------------------------
  alpha Z        PSCENC =         0.68708806
  Ewald energy   TEWEN  =        68.34905601
  -Hartree energ DENC   =      -318.36052377
  -exchange      EXHF   =         0.00000000
  -V(xc)+E(xc)   XCENC  =        29.38794391
  PAW double counting   =       647.56876218     -649.24496621
  entropy T*S    EENTRO =         0.01159581
  eigenvalues    EBANDS =       -99.54883366
  atomic energy  EATOM  =       301.91090041
  Solvation  Ediel_sol  =         0.00000000
  ---------------------------------------------------
  free energy    TOTEN  =       -19.23897727 eV

  energy without entropy =      -19.25057309  energy(sigma->0) =      -19.24284254


--------------------------------------------------------------------------------------------------------




--------------------------------------- Iteration      2(   4)  ---------------------------------------


    POTLOK:  cpu time    0.1094: real time    0.1195
    SETDIJ:  cpu time    0.0000: real time    0.0034
     EDDAV:  cpu time    0.0312: real time    0.0331
       DOS:  cpu time    0.0000: real time    0.0001
    --------------------------------------------
      LOOP:  cpu time    0.1406: real time    0.1561

 eigenvalue-minimisations  :    16
 total energy-change (2. order) :-0.2394672E-06  (-0.4937973E-06)
 number of electron       8.0000062 magnetization 
 augmentation part        0.3390050 magnetization 

 Free energy of the ion-electron system (eV)
  ---------------------------------------------------
  alpha Z        PSCENC =         0.68708806
  Ewald energy   TEWEN  =        68.34905601
  -Hartree energ DENC   =      -318.36951411
  -exchange      EXHF   =         0.00000000
  -V(xc)+E(xc)   XCENC  =        29.38838047
  PAW double counting   =       647.17877417     -648.85485315
  entropy T*S    EENTRO =         0.01159581
  eigenvalues    EBANDS =       -99.54040519
  atomic energy  EATOM  =       301.91090041
  Solvation  Ediel_sol  =         0.00000000
  ---------------------------------------------------
  free energy    TOTEN  =       -19.23897751 eV

  energy without entropy =      -19.25057332  energy(sigma->0) =      -19.24284278


--------------------------------------------------------------------------------------------------------




 average (electrostatic) potential at core
  the test charge radii are     0.5201  0.7089
  (the norm of the test charge is              1.0000)
       1 -43.5236       2 -43.5199       3 -43.5236       4 -72.3764



 E-fermi :  -5.2029     XC(G=0):  -1.6617     alpha+bet : -0.5051


 k-point     1 :       0.0000    0.0000    0.0000
  band No.  band energies     occupation 
      1     -21.0327      2.00000
      2     -11.6834      2.00000
      3     -11.6829      2.00000
      4      -5.3713      2.00000
      5      -1.0262     -0.00000
      6       1.5015      0.00000
      7       1.6730      0.00000
      8       1.8511      0.00000


--------------------------------------------------------------------------------------------------------


 soft charge-density along one line, spin component           1
         0         1         2         3         4         5         6         7         8         9
 total charge-density along one line

 pseudopotential strength for first ion, spin component:           1
 -2.365  -4.081   0.001  -0.000   0.002
 -4.081  -6.956   0.004  -0.002   0.007
  0.001   0.004  -0.325  -0.001   0.004
 -0.000  -0.002  -0.001  -0.328  -0.002
  0.002   0.007   0.004  -0.002  -0.320
 total augmentation occupancy for first ion, spin component:           1
  4.063  -0.794  -0.341   0.135  -0.591
 -0.794   0.181   0.066  -0.029   0.114
 -0.341   0.066   0.041  -0.008   0.043
  0.135  -0.029  -0.008   0.042  -0.014
 -0.591   0.114   0.043  -0.014   0.091


------------------------ aborting loop because EDIFF is reached ----------------------------------------


    CHARGE:  cpu time    0.0156: real time    0.0073
    FORLOC:  cpu time    0.0156: real time    0.0070
    FORNL :  cpu time    0.0000: real time    0.0092
    STRESS:  cpu time    0.0625: real time    0.0557
    FORCOR:  cpu time    0.1250: real time    0.1235
    FORHAR:  cpu time    0.0469: real time    0.0404
    MIXING:  cpu time    0.0000: real time    0.0038
    OFIELD:  cpu time    0.0000: real time    0.0000

  FORCE on cell =-STRESS in cart. coord.  units (eV):
  Direction    XX          YY          ZZ          XY          YZ          ZX
  --------------------------------------------------------------------------------------
  Alpha Z     0.68709     0.68709     0.68709
  Ewald      88.69076    60.12950   -80.47123     0.00000    -0.02518    -0.00000
  Hartree   139.46357   112.87735    66.01210     0.00000    -0.01517    -0.00000
  E(xc)     -31.28589   -31.28684   -31.67387    -0.00000     0.00002     0.00000
  Local    -292.41641  -237.28427   -82.52147    -0.00000     0.03753    -0.00000
  n-local   -24.10945   -24.09768   -25.85824     0.00000    -0.00025     0.00000
  augment     1.20048     1.20146     2.07393     0.00000     0.00037    -0.00000
  Kinetic   120.09780   120.05249   151.25068    -0.00000     0.01081    -0.00000
  Fock        0.00000     0.00000     0.00000     0.00000     0.00000     0.00000
  -------------------------------------------------------------------------------------
  Total       2.32795     2.27910    -0.50102     0.00000     0.00813     0.00000
  in kB      11.10055    10.86764    -2.38904     0.00000     0.03878     0.00000
  external pressure =        6.53 kB  Pullay stress =        0.00 kB


 VOLUME and BASIS-vectors are now :
 -----------------------------------------------------------------------------
  energy-cutoff  :      400.00
  volume of cell :      336.00
      direct lattice vectors                 reciprocal lattice vectors
     6.000000000  0.000000000  0.000000000     0.166666667  0.000000000  0.000000000
     0.000000000  7.000000000  0.000000000     0.000000000  0.142857143  0.000000000
     0.000000000  0.000000000  8.000000000     0.000000000  0.000000000  0.125000000

  length of vectors
     6.000000000  7.000000000  8.000000000     0.166666667  0.142857143  0.125000000


 FORCES acting on ions
    electron-ion (+dipol)            ewald-force                    non-local-force                 convergence-correction
 -----------------------------------------------------------------------------------------------
   -.621E+02 -.365E+02 0.135E+02   0.712E+02 0.417E+02 -.157E+02   -.725E+01 -.418E+01 0.154E+01   -.133E-02 -.770E-03 -.243E-03
   0.157E-13 0.728E+02 0.135E+02   0.498E-15 -.834E+02 -.157E+02   0.000E+00 0.837E+01 0.154E+01   0.200E-14 0.157E-02 -.246E-03
   0.621E+02 -.365E+02 0.135E+02   -.712E+02 0.417E+02 -.157E+02   0.725E+01 -.418E+01 0.154E+01   0.133E-02 -.770E-03 -.243E-03
   0.980E-13 0.777E-01 -.284E+02   0.951E-16 -.899E-01 0.471E+02   0.000E+00 0.223E-01 -.168E+02   0.255E-13 0.143E-04 -.641E-02
 -----------------------------------------------------------------------------------------------
   0.838E-13 -.270E-01 0.121E+02   0.951E-16 -.555E-16 0.000E+00   0.000E+00 0.272E-01 -.121E+02   0.278E-13 0.449E-04 -.714E-02


 POSITION                                       TOTAL-FORCE (eV/Angst)
 -----------------------------------------------------------------------------------
      3.81971      3.97286      3.80334         1.892418      1.091798     -0.648740
      3.00000      2.55357      3.80347         0.000000     -2.193642     -0.649268
      2.18029      3.97286      3.80334        -1.892418      1.091798     -0.648740
      3.00000      3.50001      4.00115         0.000000      0.010047      1.946748
 -----------------------------------------------------------------------------------
    total drift:                                0.000000      0.000248     -0.001791


--------------------------------------------------------------------------------------------------------



  FREE ENERGIE OF THE ION-ELECTRON SYSTEM (eV)
  ---------------------------------------------------
  free  energy   TOTEN  =       -19.23897751 eV

  energy  without entropy=      -19.25057332  energy(sigma->0) =      -19.24284278

 d Force = 0.1111196E-01[ 0.109E-01, 0.113E-01]  d Energy = 0.1110902E-01 0.293E-05
 d Force = 0.3831355E+00[ 0.383E+00, 0.384E+00]  d Ewald  = 0.3831352E+00 0.267E-06


--------------------------------------------------------------------------------------------------------


    POTLOK:  cpu time    0.0938: real time    0.1028


--------------------------------------------------------------------------------------------------------


 NEB: the previous image is higher in energy: T
 NEB: the next image is higher in energy    : F
 NEB: only prev energy greater

 NEB: Tangent
 ----------------------------------------------
     -0.00170     -0.00098     -0.57747
     -0.00000      0.00196     -0.57710
      0.00170     -0.00098     -0.57747
     -0.00000     -0.00000      0.00339

 NEB: forces: par spring, perp REAL, dneb     0.000029    4.261765    0.000000
 NEB: distance to prev, next image, angle between     0.340553    0.340559  179.567789
 NEB: projections on to tangent (spring, REAL)     0.000029    1.117658

 stress matrix after NEB project (eV)
      2.32795      0.00000      0.00000
      0.00000      2.27910      0.00813
      0.00000      0.00813     -0.50102
  FORCES: max atom, RMS     2.195835    2.130883
  FORCE total and by dimension    4.261765    2.195831
  Stress total and by dimension    3.296179    2.327947
 
 OPT: Flag T
 OPT: LBFGS Step
 OPT: LBFGS start
 OPT: LBFGS, invcurv =    7.9255697933769392E-003
 OPT: LBFGS, bound:            0
 OPT: LBFGS: positions in Cartesian coordinates
      3.83472419      3.98151996      3.80331568
      3.00000000      2.53616718      3.80343362
      2.16527581      3.98151996      3.80331568
      3.00000000      3.50008590      4.01655247
 OPT: LBFGS END subroutine


--------------------------------------------------------------------------------------------------------


    WAVPRE:  cpu time    0.0312: real time    0.0326
    FEWALD:  cpu time    0.0000: real time    0.0008
    ORTHCH:  cpu time    0.0156: real time    0.0029
     LOOP+:  cpu time    1.0938: real time    1.0844


--------------------------------------- Iteration      3(   1)  ---------------------------------------


    POTLOK:  cpu time    0.1250: real time    0.1322
    SETDIJ:  cpu time    0.0000: real time    0.0035
     EDDAV:  cpu time    0.0469: real time    0.0464
       DOS:  cpu time    0.0000: real time    0.0001
    CHARGE:  cpu time    0.0156: real time    0.0126
    MIXING:  cpu time    0.0156: real time    0.0058
    --------------------------------------------
      LOOP:  cpu time    0.2031: real time    0.2008

 eigenvalue-minimisations  :    16
 total energy-change (2. order) :-0.1191443E+00  (-0.1770488E+00)
 number of electron       8.0000046 magnetization 
 augmentation part        0.3249317 magnetization 

 Broyden mixing:
  rms(total) = 0.58174E-01    rms(broyden)= 0.58019E-01
  rms(prec ) = 0.82584E-01
  weight for this iteration     100.00

 Free energy of the ion-electron system (eV)
  ---------------------------------------------------
  alpha Z        PSCENC =         0.68708806
  Ewald energy   TEWEN  =        63.39872024
  -Hartree energ DENC   =      -315.92779822
  -exchange      EXHF   =         0.00000000
  -V(xc)+E(xc)   XCENC  =        29.25984109
  PAW double counting   =       646.83996243     -648.51576703
  entropy T*S    EENTRO =         0.01159581
  eigenvalues    EBANDS =       -97.02266437
  atomic energy  EATOM  =       301.91090041
  Solvation  Ediel_sol  =         0.00000000
  ---------------------------------------------------
  free energy    TOTEN  =       -19.35812158 eV

  energy without entropy =      -19.36971739  energy(sigma->0) =      -19.36198685


--------------------------------------------------------------------------------------------------------




--------------------------------------- Iteration      3(   2)  ---------------------------------------


    POTLOK:  cpu time    0.1094: real time    0.1140
    SETDIJ:  cpu time    0.0000: real time    0.0033
     EDDAV:  cpu time    0.0469: real time    0.0467
       DOS:  cpu time    0.0000: real time    0.0002
    CHARGE:  cpu time    0.0156: real time    0.0101
    MIXING:  cpu time    0.0000: real time    0.0033
    --------------------------------------------
      LOOP:  cpu time    0.1719: real time    0.1775

 eigenvalue-minimisations  :    24
 total energy-change (2. order) : 0.7827890E-02  (-0.4285134E-02)
 number of electron       8.0000046 magnetization 
 augmentation part        0.3284890 magnetization 

 Broyden mixing:
  rms(total) = 0.26985E-01    rms(broyden)= 0.26956E-01
  rms(prec ) = 0.31512E-01
  weight for this iteration     100.00

 eigenvalues of (default mixing * dielectric matrix)
  average eigenvalue GAMMA=   1.0640
  1.0640

 Free energy of the ion-electron system (eV)
  ---------------------------------------------------
  alpha Z        PSCENC =         0.68708806
  Ewald energy   TEWEN  =        63.39872024
  -Hartree energ DENC   =      -314.69994863
  -exchange      EXHF   =         0.00000000
  -V(xc)+E(xc)   XCENC  =        29.19031173
  PAW double counting   =       638.45114127     -640.10830393
  entropy T*S    EENTRO =         0.01159581
  eigenvalues    EBANDS =       -98.19179864
  atomic energy  EATOM  =       301.91090041
  Solvation  Ediel_sol  =         0.00000000
  ---------------------------------------------------
  free energy    TOTEN  =       -19.35029369 eV

  energy without entropy =      -19.36188950  energy(sigma->0) =      -19.35415896


--------------------------------------------------------------------------------------------------------




--------------------------------------- Iteration      3(   3)  ---------------------------------------


    POTLOK:  cpu time    0.1094: real time    0.1140
    SETDIJ:  cpu time    0.0156: real time    0.0035
     EDDAV:  cpu time    0.0312: real time    0.0359
       DOS:  cpu time    0.0000: real time    0.0003
    CHARGE:  cpu time    0.0000: real time    0.0108
    MIXING:  cpu time    0.0156: real time    0.0066
    --------------------------------------------
      LOOP:  cpu time    0.1719: real time    0.1712

 eigenvalue-minimisations  :    16
 total energy-change (2. order) : 0.5345728E-03  (-0.1912623E-03)
 number of electron       8.0000046 magnetization 
 augmentation part        0.3291940 magnetization 

 Broyden mixing:
  rms(total) = 0.16327E-01    rms(broyden)= 0.16322E-01
  rms(prec ) = 0.17739E-01
  weight for this iteration     100.00

 eigenvalues of (default mixing * dielectric matrix)
  average eigenvalue GAMMA=   1.6370
  1.2336  2.0405

 Free energy of the ion-electron system (eV)
  ---------------------------------------------------
  alpha Z        PSCENC =         0.68708806
  Ewald energy   TEWEN  =        63.39872024
  -Hartree energ DENC   =      -314.48636617
  -exchange      EXHF   =         0.00000000
  -V(xc)+E(xc)   XCENC  =        29.17748578
  PAW double counting   =       630.62477679     -632.27490964
  entropy T*S    EENTRO =         0.01159581
  eigenvalues    EBANDS =       -98.39905040
  atomic energy  EATOM  =       301.91090041
  Solvation  Ediel_sol  =         0.00000000
  ---------------------------------------------------
  free energy    TOTEN  =       -19.34975911 eV

  energy without entropy =      -19.36135493  energy(sigma->0) =      -19.35362438


--------------------------------------------------------------------------------------------------------




--------------------------------------- Iteration      3(   4)  ---------------------------------------


    POTLOK:  cpu time    0.1094: real time    0.1178
    SETDIJ:  cpu time    0.0156: real time    0.0032
     EDDAV:  cpu time    0.0469: real time    0.0534
       DOS:  cpu time    0.0000: real time    0.0001
    CHARGE:  cpu time    0.0156: real time    0.0151
    MIXING:  cpu time    0.0000: real time    0.0044
    --------------------------------------------
      LOOP:  cpu time    0.1875: real time    0.1940

 eigenvalue-minimisations  :    24
 total energy-change (2. order) : 0.2050901E-04  (-0.5403191E-04)
 number of electron       8.0000046 magnetization 
 augmentation part        0.3290220 magnetization 

 Broyden mixing:
  rms(total) = 0.33918E-02    rms(broyden)= 0.33916E-02
  rms(prec ) = 0.38764E-02
  weight for this iteration     100.00

 eigenvalues of (default mixing * dielectric matrix)
  average eigenvalue GAMMA=   1.5831
  2.5276  1.1109  1.1109

 Free energy of the ion-electron system (eV)
  ---------------------------------------------------
  alpha Z        PSCENC =         0.68708806
  Ewald energy   TEWEN  =        63.39872024
  -Hartree energ DENC   =      -314.49243922
  -exchange      EXHF   =         0.00000000
  -V(xc)+E(xc)   XCENC  =        29.17668384
  PAW double counting   =       622.07163726     -623.71711575
  entropy T*S    EENTRO =         0.01159581
  eigenvalues    EBANDS =       -98.39680926
  atomic energy  EATOM  =       301.91090041
  Solvation  Ediel_sol  =         0.00000000
  ---------------------------------------------------
  free energy    TOTEN  =       -19.34973861 eV

  energy without entropy =      -19.36133442  energy(sigma->0) =      -19.35360388


--------------------------------------------------------------------------------------------------------




--------------------------------------- Iteration      3(   5)  ---------------------------------------


    POTLOK:  cpu time    0.1406: real time    0.1281
    SETDIJ:  cpu time    0.0000: real time    0.0033
     EDDAV:  cpu time    0.0312: real time    0.0436
       DOS:  cpu time    0.0000: real time    0.0003
    CHARGE:  cpu time    0.0156: real time    0.0117
    MIXING:  cpu time    0.0156: real time    0.0054
    --------------------------------------------
      LOOP:  cpu time    0.2031: real time    0.1923

 eigenvalue-minimisations  :    16
 total energy-change (2. order) :-0.1927447E-04  (-0.8841330E-05)
 number of electron       8.0000046 magnetization 
 augmentation part        0.3292274 magnetization 

 Broyden mixing:
  rms(total) = 0.11131E-02    rms(broyden)= 0.11114E-02
  rms(prec ) = 0.15600E-02
  weight for this iteration     100.00

 eigenvalues of (default mixing * dielectric matrix)
  average eigenvalue GAMMA=   1.4916
  2.3159  1.6299  1.1944  0.8260

 Free energy of the ion-electron system (eV)
  ---------------------------------------------------
  alpha Z        PSCENC =         0.68708806
  Ewald energy   TEWEN  =        63.39872024
  -Hartree energ DENC   =      -314.44879686
  -exchange      EXHF   =         0.00000000
  -V(xc)+E(xc)   XCENC  =        29.17420603
  PAW double counting   =       619.92385072     -621.56775915
  entropy T*S    EENTRO =         0.01159581
  eigenvalues    EBANDS =       -98.43956314
  atomic energy  EATOM  =       301.91090041
  Solvation  Ediel_sol  =         0.00000000
  ---------------------------------------------------
  free energy    TOTEN  =       -19.34975788 eV

  energy without entropy =      -19.36135369  energy(sigma->0) =      -19.35362315


--------------------------------------------------------------------------------------------------------




--------------------------------------- Iteration      3(   6)  ---------------------------------------


    POTLOK:  cpu time    0.1094: real time    0.1167
    SETDIJ:  cpu time    0.0000: real time    0.0024
     EDDAV:  cpu time    0.0469: real time    0.0412
       DOS:  cpu time    0.0000: real time    0.0002
    CHARGE:  cpu time    0.0156: real time    0.0176
    MIXING:  cpu time    0.0000: real time    0.0053
    --------------------------------------------
      LOOP:  cpu time    0.1719: real time    0.1834

 eigenvalue-minimisations  :    16
 total energy-change (2. order) :-0.1122440E-04  (-0.6770736E-06)
 number of electron       8.0000046 magnetization 
 augmentation part        0.3292304 magnetization 

 Broyden mixing:
  rms(total) = 0.50613E-03    rms(broyden)= 0.50581E-03
  rms(prec ) = 0.82136E-03
  weight for this iteration     100.00

 eigenvalues of (default mixing * dielectric matrix)
  average eigenvalue GAMMA=   1.5309
  2.5817  1.8447  1.0222  1.0222  1.1839

 Free energy of the ion-electron system (eV)
  ---------------------------------------------------
  alpha Z        PSCENC =         0.68708806
  Ewald energy   TEWEN  =        63.39872024
  -Hartree energ DENC   =      -314.45163927
  -exchange      EXHF   =         0.00000000
  -V(xc)+E(xc)   XCENC  =        29.17447758
  PAW double counting   =       620.05340581     -621.69751073
  entropy T*S    EENTRO =         0.01159581
  eigenvalues    EBANDS =       -98.43680701
  atomic energy  EATOM  =       301.91090041
  Solvation  Ediel_sol  =         0.00000000
  ---------------------------------------------------
  free energy    TOTEN  =       -19.34976910 eV

  energy without entropy =      -19.36136492  energy(sigma->0) =      -19.35363437


--------------------------------------------------------------------------------------------------------




--------------------------------------- Iteration      3(   7)  ---------------------------------------


    POTLOK:  cpu time    0.1250: real time    0.1151
    SETDIJ:  cpu time    0.0000: real time    0.0039
     EDDAV:  cpu time    0.0469: real time    0.0457
       DOS:  cpu time    0.0000: real time    0.0001
    CHARGE:  cpu time    0.0000: real time    0.0103
    MIXING:  cpu time    0.0156: real time    0.0051
    --------------------------------------------
      LOOP:  cpu time    0.1875: real time    0.1802

 eigenvalue-minimisations  :    16
 total energy-change (2. order) :-0.1596884E-04  (-0.3846476E-06)
 number of electron       8.0000046 magnetization 
 augmentation part        0.3291974 magnetization 

 Broyden mixing:
  rms(total) = 0.24690E-03    rms(broyden)= 0.24685E-03
  rms(prec ) = 0.43329E-03
  weight for this iteration     100.00

 eigenvalues of (default mixing * dielectric matrix)
  average eigenvalue GAMMA=   1.5786
  2.5200  2.1507  1.7441  0.9692  0.9692  1.1184

 Free energy of the ion-electron system (eV)
  ---------------------------------------------------
  alpha Z        PSCENC =         0.68708806
  Ewald energy   TEWEN  =        63.39872024
  -Hartree energ DENC   =      -314.45653662
  -exchange      EXHF   =         0.00000000
  -V(xc)+E(xc)   XCENC  =        29.17480046
  PAW double counting   =       619.80274150     -621.44684748
  entropy T*S    EENTRO =         0.01159581
  eigenvalues    EBANDS =       -98.43224745
  atomic energy  EATOM  =       301.91090041
  Solvation  Ediel_sol  =         0.00000000
  ---------------------------------------------------
  free energy    TOTEN  =       -19.34978507 eV

  energy without entropy =      -19.36138088  energy(sigma->0) =      -19.35365034


--------------------------------------------------------------------------------------------------------




[...]
  entropy T*S    EENTRO =         0.01159581
  eigenvalues    EBANDS =       -97.13287770
  atomic energy  EATOM  =       301.91090041
  Solvation  Ediel_sol  =         0.00000000
  ---------------------------------------------------
  free energy    TOTEN  =       -19.49151157 eV

  energy without entropy =      -19.50310738  energy(sigma->0) =      -19.49537684


--------------------------------------------------------------------------------------------------------




--------------------------------------- Iteration     21(   6)  ---------------------------------------


    POTLOK:  cpu time    0.0938: real time    0.1083
    SETDIJ:  cpu time    0.0156: real time    0.0027
     EDDAV:  cpu time    0.0469: real time    0.0457
       DOS:  cpu time    0.0000: real time    0.0002
    CHARGE:  cpu time    0.0156: real time    0.0139
    MIXING:  cpu time    0.0000: real time    0.0063
    --------------------------------------------
      LOOP:  cpu time    0.1719: real time    0.1771

 eigenvalue-minimisations  :    24
 total energy-change (2. order) :-0.2742326E-05  (-0.2397638E-06)
 number of electron       8.0000053 magnetization 
 augmentation part        0.2988019 magnetization 

 Broyden mixing:
  rms(total) = 0.25890E-03    rms(broyden)= 0.25884E-03
  rms(prec ) = 0.51183E-03
  weight for this iteration     100.00

 eigenvalues of (default mixing * dielectric matrix)
  average eigenvalue GAMMA=   1.6311
  2.6282  0.9635  0.9635  1.8001  1.8001

 Free energy of the ion-electron system (eV)
  ---------------------------------------------------
  alpha Z        PSCENC =         0.68708806
  Ewald energy   TEWEN  =        56.02913103
  -Hartree energ DENC   =      -308.29839270
  -exchange      EXHF   =         0.00000000
  -V(xc)+E(xc)   XCENC  =        28.84749905
  PAW double counting   =       570.70018599     -572.25103500
  entropy T*S    EENTRO =         0.01159581
  eigenvalues    EBANDS =       -97.12848695
  atomic energy  EATOM  =       301.91090041
  Solvation  Ediel_sol  =         0.00000000
  ---------------------------------------------------
  free energy    TOTEN  =       -19.49151432 eV

  energy without entropy =      -19.50311013  energy(sigma->0) =      -19.49537959


--------------------------------------------------------------------------------------------------------




--------------------------------------- Iteration     21(   7)  ---------------------------------------


    POTLOK:  cpu time    0.1094: real time    0.1108
    SETDIJ:  cpu time    0.0000: real time    0.0038
     EDDAV:  cpu time    0.0469: real time    0.0369
       DOS:  cpu time    0.0000: real time    0.0001
    CHARGE:  cpu time    0.0000: real time    0.0126
    MIXING:  cpu time    0.0156: real time    0.0052
    --------------------------------------------
      LOOP:  cpu time    0.1719: real time    0.1695

 eigenvalue-minimisations  :    16
 total energy-change (2. order) :-0.1143894E-04  (-0.1421498E-06)
 number of electron       8.0000053 magnetization 
 augmentation part        0.2987953 magnetization 

 Broyden mixing:
  rms(total) = 0.11767E-03    rms(broyden)= 0.11764E-03
  rms(prec ) = 0.25485E-03
  weight for this iteration     100.00

 eigenvalues of (default mixing * dielectric matrix)
  average eigenvalue GAMMA=   1.4765
  2.5205  1.8118  1.8118  0.9432  0.9432  0.8283

 Free energy of the ion-electron system (eV)
  ---------------------------------------------------
  alpha Z        PSCENC =         0.68708806
  Ewald energy   TEWEN  =        56.02913103
  -Hartree energ DENC   =      -308.29673142
  -exchange      EXHF   =         0.00000000
  -V(xc)+E(xc)   XCENC  =        28.84741187
  PAW double counting   =       570.69190525     -572.24282775
  entropy T*S    EENTRO =         0.01159581
  eigenvalues    EBANDS =       -97.12999902
  atomic energy  EATOM  =       301.91090041
  Solvation  Ediel_sol  =         0.00000000
  ---------------------------------------------------
  free energy    TOTEN  =       -19.49152575 eV

  energy without entropy =      -19.50312157  energy(sigma->0) =      -19.49539102


--------------------------------------------------------------------------------------------------------




--------------------------------------- Iteration     21(   8)  ---------------------------------------


    POTLOK:  cpu time    0.1406: real time    0.1344
    SETDIJ:  cpu time    0.0000: real time    0.0028
     EDDAV:  cpu time    0.0469: real time    0.0565
       DOS:  cpu time    0.0000: real time    0.0001
    CHARGE:  cpu time    0.0156: real time    0.0169
    MIXING:  cpu time    0.0156: real time    0.0061
    --------------------------------------------
      LOOP:  cpu time    0.2188: real time    0.2170

 eigenvalue-minimisations  :    24
 total energy-change (2. order) :-0.6080396E-05  (-0.6610090E-07)
 number of electron       8.0000053 magnetization 
 augmentation part        0.2988058 magnetization 

 Broyden mixing:
  rms(total) = 0.81352E-04    rms(broyden)= 0.81339E-04
  rms(prec ) = 0.19146E-03
  weight for this iteration     100.00

 eigenvalues of (default mixing * dielectric matrix)
  average eigenvalue GAMMA=   1.7450
  3.5847  2.5240  1.5792  1.5792  1.0278  1.0278  0.8926

 Free energy of the ion-electron system (eV)
  ---------------------------------------------------
  alpha Z        PSCENC =         0.68708806
  Ewald energy   TEWEN  =        56.02913103
  -Hartree energ DENC   =      -308.29326069
  -exchange      EXHF   =         0.00000000
  -V(xc)+E(xc)   XCENC  =        28.84724229
  PAW double counting   =       570.71488646     -572.26580265
  entropy T*S    EENTRO =         0.01159581
  eigenvalues    EBANDS =       -97.13331255
  atomic energy  EATOM  =       301.91090041
  Solvation  Ediel_sol  =         0.00000000
  ---------------------------------------------------
  free energy    TOTEN  =       -19.49153184 eV

  energy without entropy =      -19.50312765  energy(sigma->0) =      -19.49539711


--------------------------------------------------------------------------------------------------------




--------------------------------------- Iteration     21(   9)  ---------------------------------------


    POTLOK:  cpu time    0.1406: real time    0.1377
    SETDIJ:  cpu time    0.0000: real time    0.0040
     EDDAV:  cpu time    0.0312: real time    0.0402
       DOS:  cpu time    0.0000: real time    0.0001
    CHARGE:  cpu time    0.0156: real time    0.0133
    MIXING:  cpu time    0.0156: real time    0.0053
    --------------------------------------------
      LOOP:  cpu time    0.2031: real time    0.2006

 eigenvalue-minimisations  :    16
 total energy-change (2. order) :-0.5669028E-05  (-0.1059589E-06)
 number of electron       8.0000053 magnetization 
 augmentation part        0.2988000 magnetization 

 Broyden mixing:
  rms(total) = 0.43820E-04    rms(broyden)= 0.43813E-04
  rms(prec ) = 0.70984E-04
  weight for this iteration     100.00

 eigenvalues of (default mixing * dielectric matrix)
  average eigenvalue GAMMA=   1.8525
  4.2651  2.5541  1.9063  1.9063  1.0620  1.0620  1.1367  0.9277

 Free energy of the ion-electron system (eV)
  ---------------------------------------------------
  alpha Z        PSCENC =         0.68708806
  Ewald energy   TEWEN  =        56.02913103
  -Hartree energ DENC   =      -308.29263794
  -exchange      EXHF   =         0.00000000
  -V(xc)+E(xc)   XCENC  =        28.84721656
  PAW double counting   =       570.73277848     -572.28372443
  entropy T*S    EENTRO =         0.01159581
  eigenvalues    EBANDS =       -97.13388548
  atomic energy  EATOM  =       301.91090041
  Solvation  Ediel_sol  =         0.00000000
  ---------------------------------------------------
  free energy    TOTEN  =       -19.49153750 eV

  energy without entropy =      -19.50313331  energy(sigma->0) =      -19.49540277


--------------------------------------------------------------------------------------------------------




--------------------------------------- Iteration     21(  10)  ---------------------------------------


    POTLOK:  cpu time    0.1250: real time    0.1278
    SETDIJ:  cpu time    0.0000: real time    0.0043
     EDDAV:  cpu time    0.0625: real time    0.0622
       DOS:  cpu time    0.0000: real time    0.0001
    CHARGE:  cpu time    0.0156: real time    0.0164
    MIXING:  cpu time    0.0156: real time    0.0063
    --------------------------------------------
      LOOP:  cpu time    0.2188: real time    0.2172

 eigenvalue-minimisations  :    24
 total energy-change (2. order) :-0.1288342E-05  (-0.2064398E-07)
 number of electron       8.0000053 magnetization 
 augmentation part        0.2987974 magnetization 

 Broyden mixing:
  rms(total) = 0.18261E-04    rms(broyden)= 0.18239E-04
  rms(prec ) = 0.28883E-04
  weight for this iteration     100.00

 eigenvalues of (default mixing * dielectric matrix)
  average eigenvalue GAMMA=   1.9507
  5.6672  2.5122  2.1657  1.9170  1.2718  1.0766  1.0766  0.9346  0.9346

 Free energy of the ion-electron system (eV)
  ---------------------------------------------------
  alpha Z        PSCENC =         0.68708806
  Ewald energy   TEWEN  =        56.02913103
  -Hartree energ DENC   =      -308.29325947
  -exchange      EXHF   =         0.00000000
  -V(xc)+E(xc)   XCENC  =        28.84724396
  PAW double counting   =       570.72575736     -572.27669165
  entropy T*S    EENTRO =         0.01159581
  eigenvalues    EBANDS =       -97.13330430
  atomic energy  EATOM  =       301.91090041
  Solvation  Ediel_sol  =         0.00000000
  ---------------------------------------------------
  free energy    TOTEN  =       -19.49153879 eV

  energy without entropy =      -19.50313460  energy(sigma->0) =      -19.49540406


--------------------------------------------------------------------------------------------------------




--------------------------------------- Iteration     21(  11)  ---------------------------------------


    POTLOK:  cpu time    0.1250: real time    0.1373
    SETDIJ:  cpu time    0.0156: real time    0.0030
     EDDAV:  cpu time    0.0469: real time    0.0471
       DOS:  cpu time    0.0000: real time    0.0002
    --------------------------------------------
      LOOP:  cpu time    0.1875: real time    0.1876

 eigenvalue-minimisations  :    16
 total energy-change (2. order) :-0.1813479E-06  (-0.1668550E-08)
 number of electron       8.0000053 magnetization 
 augmentation part        0.2987974 magnetization 

 Free energy of the ion-electron system (eV)
  ---------------------------------------------------
  alpha Z        PSCENC =         0.68708806
  Ewald energy   TEWEN  =        56.02913103
  -Hartree energ DENC   =      -308.29321208
  -exchange      EXHF   =         0.00000000
  -V(xc)+E(xc)   XCENC  =        28.84723944
  PAW double counting   =       570.72459554     -572.27552750
  entropy T*S    EENTRO =         0.01159581
  eigenvalues    EBANDS =       -97.13334969
  atomic energy  EATOM  =       301.91090041
  Solvation  Ediel_sol  =         0.00000000
  ---------------------------------------------------
  free energy    TOTEN  =       -19.49153897 eV

  energy without entropy =      -19.50313478  energy(sigma->0) =      -19.49540424


--------------------------------------------------------------------------------------------------------




 average (electrostatic) potential at core
  the test charge radii are     0.5201  0.7089
  (the norm of the test charge is              1.0000)
       1 -42.9107       2 -42.9100       3 -42.9107       4 -72.5456



 E-fermi :  -5.6923     XC(G=0):  -1.6780     alpha+bet : -0.5051


 k-point     1 :       0.0000    0.0000    0.0000
  band No.  band energies     occupation 
      1     -20.8357      2.00000
      2     -10.9378      2.00000
      3     -10.9325      2.00000
      4      -5.8607      2.00000
      5      -1.1378     -0.00000
      6       1.4616      0.00000
      7       1.6385      0.00000
      8       1.7646      0.00000


--------------------------------------------------------------------------------------------------------


 soft charge-density along one line, spin component           1
         0         1         2         3         4         5         6         7         8         9
 total charge-density along one line

 pseudopotential strength for first ion, spin component:           1
 -2.360  -4.070   0.001  -0.001   0.002
 -4.070  -6.934   0.003  -0.002   0.006
  0.001   0.003  -0.330  -0.001   0.003
 -0.001  -0.002  -0.001  -0.331  -0.002
  0.002   0.006   0.003  -0.002  -0.327
 total augmentation occupancy for first ion, spin component:           1
  3.852  -0.774  -0.269   0.211  -0.468
 -0.774   0.181   0.055  -0.046   0.095
 -0.269   0.055   0.030  -0.011   0.028
  0.211  -0.046  -0.011   0.036  -0.020
 -0.468   0.095   0.028  -0.020   0.062


------------------------ aborting loop because EDIFF is reached ----------------------------------------


    CHARGE:  cpu time    0.0156: real time    0.0158
    FORLOC:  cpu time    0.0156: real time    0.0123
    FORNL :  cpu time    0.0000: real time    0.0092
    STRESS:  cpu time    0.0625: real time    0.0651
    FORCOR:  cpu time    0.1250: real time    0.1230
    FORHAR:  cpu time    0.0469: real time    0.0450
    MIXING:  cpu time    0.0000: real time    0.0061
    OFIELD:  cpu time    0.0000: real time    0.0000

  FORCE on cell =-STRESS in cart. coord.  units (eV):
  Direction    XX          YY          ZZ          XY          YZ          ZX
  --------------------------------------------------------------------------------------
  Alpha Z     0.68709     0.68709     0.68709
  Ewald      71.81258    43.42851   -59.21199    -0.00000    -0.19407    -0.00000
  Hartree   133.93480   107.50069    66.85789     0.00000    -0.05652    -0.00000
  E(xc)     -30.75889   -30.75959   -31.01236     0.00000    -0.00046    -0.00000
  Local    -275.28559  -220.45280   -98.15325    -0.00000     0.20029    -0.00000
  n-local   -21.84214   -21.82363   -23.82493    -0.00000    -0.00617    -0.00000
  augment     1.18794     1.18707     1.77388     0.00000     0.00191    -0.00000
  Kinetic   119.61278   119.51033   142.08587    -0.00000     0.06492    -0.00000
  Fock        0.00000     0.00000     0.00000     0.00000     0.00000     0.00000
  -------------------------------------------------------------------------------------
  Total      -0.65142    -0.72234    -0.79780     0.00000     0.00991     0.00000
  in kB      -3.10623    -3.44439    -3.80421     0.00000     0.04726     0.00000
  external pressure =       -3.45 kB  Pullay stress =        0.00 kB


 VOLUME and BASIS-vectors are now :
 -----------------------------------------------------------------------------
  energy-cutoff  :      400.00
  volume of cell :      336.00
      direct lattice vectors                 reciprocal lattice vectors
     6.000000000  0.000000000  0.000000000     0.166666667  0.000000000  0.000000000
     0.000000000  7.000000000  0.000000000     0.000000000  0.142857143  0.000000000
     0.000000000  0.000000000  8.000000000     0.000000000  0.000000000  0.125000000

  length of vectors
     6.000000000  7.000000000  8.000000000     0.166666667  0.142857143  0.125000000


 FORCES acting on ions
    electron-ion (+dipol)            ewald-force                    non-local-force                 convergence-correction
 -----------------------------------------------------------------------------------------------
   -.553E+02 -.325E+02 0.235E+02   0.610E+02 0.358E+02 -.260E+02   -.574E+01 -.331E+01 0.248E+01   0.705E-05 0.447E-05 0.120E-04
   0.143E-13 0.650E+02 0.233E+02   -.918E-15 -.717E+02 -.257E+02   0.000E+00 0.664E+01 0.246E+01   0.123E-14 -.117E-04 0.101E-04
   0.553E+02 -.325E+02 0.235E+02   -.610E+02 0.358E+02 -.260E+02   0.574E+01 -.331E+01 0.248E+01   -.705E-05 0.447E-05 0.120E-04
   0.984E-13 0.101E-01 -.485E+02   0.143E-13 0.439E-01 0.777E+02   0.000E+00 -.450E-01 -.292E+02   0.127E-13 0.198E-04 0.296E-03
 -----------------------------------------------------------------------------------------------
   -.721E-13 0.269E-01 0.218E+02   0.951E-16 -.555E-16 0.142E-13   0.000E+00 -.268E-01 -.218E+02   0.145E-13 0.171E-04 0.330E-03


 POSITION                                       TOTAL-FORCE (eV/Angst)
 -----------------------------------------------------------------------------------
      3.82041      3.97321      3.80532        -0.012550     -0.007063     -0.010437
      3.00000      2.55235      3.80836         0.000000      0.005124     -0.015582
      2.17959      3.97321      3.80532         0.012550     -0.007063     -0.010437
      3.00000      3.50052      4.19342         0.000000      0.009002      0.036457
 -----------------------------------------------------------------------------------
    total drift:                               -0.000000      0.000127     -0.000244


--------------------------------------------------------------------------------------------------------



  FREE ENERGIE OF THE ION-ELECTRON SYSTEM (eV)
  ---------------------------------------------------
  free  energy   TOTEN  =       -19.49153897 eV

  energy  without entropy=      -19.50313478  energy(sigma->0) =      -19.49540424

 d Force = 0.1543383E-02[ 0.622E-03, 0.246E-02]  d Energy = 0.1563104E-02-0.197E-04
 d Force = 0.2722610E+00[ 0.290E+00, 0.254E+00]  d Ewald  = 0.2723105E+00-0.495E-04


--------------------------------------------------------------------------------------------------------


    POTLOK:  cpu time    0.1562: real time    0.1471


--------------------------------------------------------------------------------------------------------


 NEB: the previous image is higher in energy: T
 NEB: the next image is higher in energy    : F
 NEB: only prev energy greater

 NEB: Tangent
 ----------------------------------------------
     -0.12586     -0.07238     -0.48670
     -0.00000      0.14373     -0.47910
      0.12586     -0.07238     -0.48670
     -0.00000      0.00103      0.48363

 NEB: forces: par spring, perp REAL, dneb     0.018650    0.026403    0.000000
 NEB: distance to prev, next image, angle between     0.399851    0.396121  119.871222
 NEB: projections on to tangent (spring, REAL)    -0.018650    0.040184

 stress matrix after NEB project (eV)
     -0.65142      0.00000      0.00000
      0.00000     -0.72234      0.00991
      0.00000      0.00991     -0.79780
  FORCES: max atom, RMS     0.019117    0.016163
  FORCE total and by dimension    0.032325    0.018197
  Stress total and by dimension    1.258094    0.797797
 OPT: skip step - force has converged


--------------------------------------------------------------------------------------------------------


  
 reached required accuracy - stopping structural energy minimisation
 writing wavefunctions
     LOOP+:  cpu time    2.9844: real time    2.9895
    4ORBIT:  cpu time    0.0000: real time    0.0000

 total amount of memory used by VASP MPI-rank0    49277. kBytes
=======================================================================

   base      :      30000. kBytes
   nonl-proj :       1166. kBytes
   fftplans  :       6115. kBytes
   grid      :      11594. kBytes
   one-center:         12. kBytes
   wavefun   :        390. kBytes

  
  
 General timing and accounting informations for this job:
 ========================================================
  
                  Total CPU time used (sec):       51.953
                            User time (sec):       47.406
                          System time (sec):        4.547
                         Elapsed time (sec):       52.430
  
                   Maximum memory used (kb):       54340.
                   Average memory used (kb):           0.
  
                          Minor page faults:       866389
                          Major page faults:            0
                 Voluntary context switches:            0
