 vasp.5.4.4.18Apr17-6-g9f103f2a35 (build Mar 30 2021 17:29:28) complex           
 executed on             LinuxGNU date 2021.03.31  09:32:59
 running on    6 total cores
 each image running on    2 cores
 distrk:  each k-point on    2 cores,    1 groups
 distr:  one band on NCORES_PER_BAND=   1 cores,    2 groups


--------------------------------------------------------------------------------------------------------


 INCAR:
 POTCAR:    PAW_PBE H 15Jun2001                   
 POTCAR:    PAW_PBE N 08Apr2002                   
 POTCAR:    PAW_PBE H 15Jun2001                   
   VRHFIN =H: ultrasoft test                                                    
   LEXCH  = PE                                                                  
   EATOM  =    12.4884 eV,    0.9179 Ry                                         
                                                                                
   TITEL  = PAW_PBE H 15Jun2001                                                 
   LULTRA =        F    use ultrasoft PP ?                                      
   IUNSCR =        0    unscreen: 0-lin 1-nonlin 2-no                           
   RPACOR =    0.000    partial core radius                                     
   POMASS =    1.000; ZVAL   =    1.000    mass and valenz                      
   RCORE  =    1.100    outmost cutoff radius                                   
   RWIGS  =    0.700; RWIGS  =    0.370    wigner-seitz radius (au A)           
   ENMAX  =  250.000; ENMIN  =  200.000 eV                                      
   RCLOC  =    0.701    cutoff for local pot                                    
   LCOR   =        T    correct aug charges                                     
   LPAW   =        T    paw PP                                                  
   EAUG   =  400.000                                                            
   RMAX   =    1.123    core radius for proj-oper                               
   RAUG   =    1.200    factor for augmentation sphere                          
   RDEP   =    1.112    radius for radial grids                                 
   RDEPT  =    0.926    core radius for aug-charge                              
                                                                                
   Atomic configuration                                                         
    2 entries                                                                   
     n  l   j            E        occ.                                          
     1  0  0.50        -6.4927   1.0000                                         
     2  1  0.50        -3.4015   0.0000                                         
   Description                                                                  
     l       E           TYP  RCUT    TYP  RCUT                                 
     0     -6.4927494     23  1.100                                             
     0      6.8029130     23  1.100                                             
     1     -4.0817478     23  1.100                                             
  local pseudopotential read in
  atomic valenz-charges read in
  non local Contribution for L=           0  read in
    real space projection operators read in
  non local Contribution for L=           0  read in
    real space projection operators read in
  non local Contribution for L=           1  read in
    real space projection operators read in
    PAW grid and wavefunctions read in

   number of l-projection  operators is LMAX  =           3
   number of lm-projection operators is LMMAX =           5

 POTCAR:    PAW_PBE N 08Apr2002                   
   VRHFIN =N: s2p3                                                              
   LEXCH  = PE                                                                  
   EATOM  =   264.5486 eV,   19.4438 Ry                                         
                                                                                
   TITEL  = PAW_PBE N 08Apr2002                                                 
   LULTRA =        F    use ultrasoft PP ?                                      
   IUNSCR =        1    unscreen: 0-lin 1-nonlin 2-no                           
   RPACOR =    1.200    partial core radius                                     
   POMASS =   14.001; ZVAL   =    5.000    mass and valenz                      
   RCORE  =    1.500    outmost cutoff radius                                   
   RWIGS  =    1.400; RWIGS  =    0.741    wigner-seitz radius (au A)           
   ENMAX  =  400.000; ENMIN  =  300.000 eV                                      
   ICORE  =        2    local potential                                         
   LCOR   =        T    correct aug charges                                     
   LPAW   =        T    paw PP                                                  
   EAUG   =  627.112                                                            
   DEXC   =    0.000                                                            
   RMAX   =    1.529    core radius for proj-oper                               
   RAUG   =    1.300    factor for augmentation sphere                          
   RDEP   =    1.514    radius for radial grids                                 
   RDEPT  =    1.338    core radius for aug-charge                              
                                                                                
   Atomic configuration                                                         
    4 entries                                                                   
     n  l   j            E        occ.                                          
     1  0  0.50      -384.7179   2.0000                                         
     2  0  0.50       -18.5828   2.0000                                         
     2  1  0.50        -7.0898   3.0000                                         
     3  2  1.50        -6.8029   0.0000                                         
   Description                                                                  
     l       E           TYP  RCUT    TYP  RCUT                                 
     0    -18.5828119     23  1.200                                             
     0    -13.5018863     23  1.200                                             
     1     -7.0897853     23  1.500                                             
     1      9.5240782     23  1.500                                             
     2     -6.8029130      7  1.500                                             
  local pseudopotential read in
  partial core-charges read in
  partial kinetic energy density read in
  atomic valenz-charges read in
  non local Contribution for L=           0  read in
    real space projection operators read in
  non local Contribution for L=           0  read in
    real space projection operators read in
  non local Contribution for L=           1  read in
    real space projection operators read in
  non local Contribution for L=           1  read in
    real space projection operators read in
    PAW grid and wavefunctions read in

   number of l-projection  operators is LMAX  =           4
   number of lm-projection operators is LMMAX =           8

  PAW_PBE H 15Jun2001                   :
 energy of atom  1       EATOM=  -12.4884
 kinetic energy error for atom=    0.0098 (will be added to EATOM!!)
  PAW_PBE N 08Apr2002                   :
 energy of atom  2       EATOM= -264.5486
 kinetic energy error for atom=    0.0736 (will be added to EATOM!!)


 POSCAR: # Compound: H3N. Old comment: H3N       
  positions in direct lattice
  No initial velocities read in
 exchange correlation table for  LEXCH =        8
   RHO(1)=    0.500       N(1)  =     2000
   RHO(2)=  100.500       N(2)  =     4000

 VTST: version 3.2, (02/03/18)

 CHAIN: initializing optimizer
 
 OPT: Using LBFGS optimizer
 OPT: LBFGS, Init
 OPT: LBFGS, MEMORY             20
 OPT: LBFGS, IMAGES              3
 OPT: LBFGS, MAXMOVE      0.200000
 OPT: LBFGS, LGLOBAL      T
 OPT: LBFGS, INVCURV      0.010000
 OPT: LBFGS, LLINEOPT      F
 OPT: LBFGS, FDSTEP       0.005000
 OPT: LBFGS, LAUTOSCALE      T
 OPT: LBFGS, DAMPING      2.000000
 
 CHAIN: Read ICHAIN            0
 CHAIN: Running the NEB
 NEB:          SPRING     -5.000000
 NEB:          LCLIMB      T
 NEB:     LTANGENTOLD      F
 NEB:           LDNEB      F
 NEB:        LDNEBORG      F
 NEB:        LNEBCELL      F
 NEB:          EFIRST      0.000000
 NEB:           ELAST      0.000000

 POSCAR: # Compound: H3N. Old comment: H3N       
  positions in direct lattice
  No initial velocities read in

 POSCAR: # Compound: H3N. Old comment: H3N       
  positions in direct lattice
  No initial velocities read in



--------------------------------------------------------------------------------------------------------


 ion  position               nearest neighbor table
   1  0.636  0.567  0.525-   4 0.97
   2  0.500  0.365  0.525-   4 0.97
   3  0.364  0.567  0.525-   4 0.97
   4  0.500  0.500  0.500-   1 0.97   3 0.97   2 0.97

  LATTYP: Found a simple orthorhombic cell.
 ALAT       =     6.0000000000
 B/A-ratio  =     1.1666666667
 C/A-ratio  =     1.3333333333
  
  Lattice vectors:
  
 A1 = (   6.0000000000,   0.0000000000,   0.0000000000)
 A2 = (   0.0000000000,   7.0000000000,   0.0000000000)
 A3 = (   0.0000000000,   0.0000000000,   8.0000000000)


Analysis of symmetry for initial positions (statically):
=====================================================================
 Subroutine PRICEL returns:
 Original cell was already a primitive cell.
 

 Routine SETGRP: Setting up the symmetry group for a 
 simple orthorhombic supercell.


 Subroutine GETGRP returns: Found  2 space group operations
 (whereof  2 operations were pure point group operations)
 out of a pool of  8 trial point group operations.


The static configuration has the point symmetry C_1h.


Analysis of symmetry for dynamics (positions and initial velocities):
=====================================================================
 Subroutine PRICEL returns:
 Original cell was already a primitive cell.
 

 Routine SETGRP: Setting up the symmetry group for a 
 simple orthorhombic supercell.


 Subroutine GETGRP returns: Found  2 space group operations
 (whereof  2 operations were pure point group operations)
 out of a pool of  8 trial point group operations.


The dynamic configuration has the point symmetry C_1h.


 Subroutine INISYM returns: Found  2 space group operations
 (whereof  2 operations are pure point group operations),
 and found     1 'primitive' translations



 KPOINTS: # No comment                            

Automatic generation of k-mesh.
Space group operators:
 irot       det(A)        alpha          n_x          n_y          n_z        tau_x        tau_y        tau_z
    1     1.000000     0.000000     1.000000     0.000000     0.000000     0.000000     0.000000     0.000000
    2    -1.000000   180.000000     1.000000     0.000000     0.000000     0.000000     0.000000     0.000000
 
 Subroutine IBZKPT returns following result:
 ===========================================
 
 Found      1 irreducible k-points:
 
 Following reciprocal coordinates:
            Coordinates               Weight
  0.000000  0.000000  0.000000      1.000000
 
 Following cartesian coordinates:
            Coordinates               Weight
  0.000000  0.000000  0.000000      1.000000
 


--------------------------------------------------------------------------------------------------------




 Dimension of arrays:
   k-points           NKPTS =      1   k-points in BZ     NKDIM =      1   number of bands    NBANDS=      8
   number of dos      NEDOS =    301   number of ions     NIONS =      4
   non local maximal  LDIM  =      4   non local SUM 2l+1 LMDIM =      8
   total plane-waves  NPLWV =  43200
   max r-space proj   IRMAX =      1   max aug-charges    IRDMAX=   1781
   dimension x,y,z NGX =    30 NGY =   36 NGZ =   40
   dimension x,y,z NGXF=    60 NGYF=   72 NGZF=   80
   support grid    NGXF=    60 NGYF=   72 NGZF=   80
   ions per type =               3   1
   NGX,Y,Z   is equivalent  to a cutoff of   8.31,  8.55,  8.31 a.u.
   NGXF,Y,Z  is equivalent  to a cutoff of  16.62, 17.10, 16.62 a.u.

 SYSTEM =  unknown system                          
 POSCAR =  # Compound: H3N. Old comment: H3N       

 Startparameter for this run:
   NWRITE =      2    write-flag & timer
   PREC   = normal    normal or accurate (medium, high low for compatibility)
   ISTART =      1    job   : 0-new  1-cont  2-samecut
   ICHARG =      0    charge: 1-file 2-atom 10-const
   ISPIN  =      1    spin polarized calculation?
   LNONCOLLINEAR =      F non collinear calculations
   LSORBIT =      F    spin-orbit coupling
   INIWAV =      1    electr: 0-lowe 1-rand  2-diag
   LASPH  =      F    aspherical Exc in radial PAW
   METAGGA=      F    non-selfconsistent MetaGGA calc.

 Electronic Relaxation 1
   ENCUT  =  400.0 eV  29.40 Ry    5.42 a.u.   9.78 11.42 13.05*2*pi/ulx,y,z
   ENINI  =  400.0     initial cutoff
   ENAUG  =  627.1 eV  augmentation charge cutoff
   NELM   =     60;   NELMIN=  2; NELMDL=  0     # of ELM steps 
   EDIFF  = 0.1E-05   stopping-criterion for ELM
   LREAL  =      F    real-space projection
   NLSPLINE    = F    spline interpolate recip. space projectors
   LCOMPAT=      F    compatible to vasp.4.4
   GGA_COMPAT  = T    GGA compatible to vasp.4.4-vasp.4.6
   LMAXPAW     = -100 max onsite density
   LMAXMIX     =    2 max onsite mixed and CHGCAR
   VOSKOWN=      0    Vosko Wilk Nusair interpolation
   ROPT   =    0.00000   0.00000
 Ionic relaxation
   EDIFFG = -.3E-01   stopping-criterion for IOM
   NSW    =     50    number of steps for IOM
   NBLOCK =      1;   KBLOCK =     50    inner block; outer block 
   IBRION =      3    ionic relax: 0-MD 1-quasi-New 2-CG
   NFREE  =      0    steps in history (QN), initial steepest desc. (CG)
   ISIF   =      2    stress and relaxation
   IWAVPR =     11    prediction:  0-non 1-charg 2-wave 3-comb
   ISYM   =      2    0-nonsym 1-usesym 2-fastsym
   LCORR  =      T    Harris-Foulkes like correction to forces

   POTIM  = 0.0000    time-step for ionic-motion
   TEIN   =    0.0    initial temperature
   TEBEG  =    0.0;   TEEND  =   0.0 temperature during run
   SMASS  =  -3.00    Nose mass-parameter (am)
   estimated Nose-frequenzy (Omega)   =  0.10E-29 period in steps =  0.00 mass=  -0.823E-27a.u.
   SCALEE = 1.0000    scale energy and forces
   NPACO  =    256;   APACO  = 16.0  distance and # of slots for P.C.
   PSTRESS=    0.0 pullay stress

  Mass of Ions in am
   POMASS =   1.00 14.00
  Ionic Valenz
   ZVAL   =   1.00  5.00
  Atomic Wigner-Seitz radii
   RWIGS  =  -1.00 -1.00
  virtual crystal weights 
   VCA    =   1.00  1.00
   NELECT =       8.0000    total number of electrons
   NUPDOWN=      -1.0000    fix difference up-down

 DOS related values:
   EMIN   =  10.00;   EMAX   =-10.00  energy-range for DOS
   EFERMI =   0.00
   ISMEAR =     1;   SIGMA  =   0.20  broadening in eV -4-tet -1-fermi 0-gaus

 Electronic relaxation 2 (details)
   IALGO  =     38    algorithm
   LDIAG  =      T    sub-space diagonalisation (order eigenvalues)
   LSUBROT=      F    optimize rotation matrix (better conditioning)
   TURBO    =      0    0=normal 1=particle mesh
   IRESTART =      0    0=no restart 2=restart with 2 vectors
   NREBOOT  =      0    no. of reboots
   NMIN     =      0    reboot dimension
   EREF     =   0.00    reference energy to select bands
   IMIX   =      4    mixing-type and parameters
     AMIX     =   0.40;   BMIX     =  1.00
     AMIX_MAG =   1.60;   BMIX_MAG =  1.00
     AMIN     =   0.10
     WC   =   100.;   INIMIX=   1;  MIXPRE=   1;  MAXMIX= -45

 Intra band minimization:
   WEIMIN = 0.0010     energy-eigenvalue tresh-hold
   EBREAK =  0.31E-07  absolut break condition
   DEPER  =   0.30     relativ break condition  

   TIME   =   0.40     timestep for ELM

  volume/ion in A,a.u.               =      84.00       566.86
  Fermi-wavevector in a.u.,A,eV,Ry     =   0.470968  0.890001  3.017925  0.221811
  Thomas-Fermi vector in A             =   1.463355

 Write flags
   LWAVE        =      T    write WAVECAR
   LDOWNSAMPLE  =      F    k-point downsampling of WAVECAR
   LCHARG       =      T    write CHGCAR
   LVTOT        =      F    write LOCPOT, total local potential
   LVHAR        =      F    write LOCPOT, Hartree potential only
   LELF         =      F    write electronic localiz. function (ELF)
   LORBIT       =      0    0 simple, 1 ext, 2 COOP (PROOUT), +10 PAW based schemes


 Dipole corrections
   LMONO  =      F    monopole corrections only (constant potential shift)
   LDIPOL =      F    correct potential (dipole corrections)
   IDIPOL =      0    1-x, 2-y, 3-z, 4-all directions 
   EPSILON=  1.0000000 bulk dielectric constant

 Exchange correlation treatment:
   GGA     =    --    GGA type
   LEXCH   =     8    internal setting for exchange type
   VOSKOWN=      0    Vosko Wilk Nusair interpolation
   LHFCALC =     F    Hartree Fock is set to
   LHFONE  =     F    Hartree Fock one center treatment
   AEXX    =    0.0000 exact exchange contribution

 Linear response parameters
   LEPSILON=     F    determine dielectric tensor
   LRPA    =     F    only Hartree local field effects (RPA)
   LNABLA  =     F    use nabla operator in PAW spheres
   LVEL    =     F    velocity operator in full k-point grid
   LINTERFAST=   F  fast interpolation
   KINTER  =     0    interpolate to denser k-point grid
   CSHIFT  =0.1000    complex shift for real part using Kramers Kronig
   OMEGAMAX=  -1.0    maximum frequency
   DEG_THRESHOLD= 0.2000000E-02 threshold for treating states as degnerate
   RTIME   =   -0.100 relaxation time in fs
  (WPLASMAI=    0.000 imaginary part of plasma frequency in eV, 0.658/RTIME)
   DFIELD  = 0.0000000 0.0000000 0.0000000 field for delta impulse in time

 Orbital magnetization related:
   ORBITALMAG=     F  switch on orbital magnetization
   LCHIMAG   =     F  perturbation theory with respect to B field
   DQ        =  0.001000  dq finite difference perturbation B field
   LLRAUG    =     F  two centre corrections for induced B field



--------------------------------------------------------------------------------------------------------


 quickmin algorithm: (dynamic with friction)
 charge density and potential will be updated during run
 non-spin polarized calculation
 Variant of blocked Davidson
 Davidson routine will perform the subspace rotation
 perform sub-space diagonalisation
    after iterative eigenvector-optimisation
 modified Broyden-mixing scheme, WC =      100.0
 initial mixing is a Kerker type mixing with AMIX =  0.4000 and BMIX =      1.0000
 Hartree-type preconditioning will be used
 using additional bands            4
 reciprocal scheme for non local part
 use partial core corrections
 calculate Harris-corrections to forces   (improved forces if not selfconsistent)
 use gradient corrections 
 use of overlap-Matrix (Vanderbilt PP)
 Methfessel and Paxton  Order N= 1 SIGMA  =   0.20


--------------------------------------------------------------------------------------------------------


  energy-cutoff  :      400.00
  volume of cell :      336.00
      direct lattice vectors                 reciprocal lattice vectors
     6.000000000  0.000000000  0.000000000     0.166666667  0.000000000  0.000000000
     0.000000000  7.000000000  0.000000000     0.000000000  0.142857143  0.000000000
     0.000000000  0.000000000  8.000000000     0.000000000  0.000000000  0.125000000

  length of vectors
     6.000000000  7.000000000  8.000000000     0.166666667  0.142857143  0.125000000



 old parameters found on file WAVECAR:
  energy-cutoff  :      400.00
  volume of cell :      336.00
      direct lattice vectors                 reciprocal lattice vectors
     6.000000000  0.000000000  0.000000000     0.166666667  0.000000000  0.000000000
     0.000000000  7.000000000  0.000000000     0.000000000  0.142857143  0.000000000
     0.000000000  0.000000000  8.000000000     0.000000000  0.000000000  0.125000000

  length of vectors


 k-points in units of 2pi/SCALE and weight: # No comment                            
   0.00000000  0.00000000  0.00000000       1.000

 k-points in reciprocal lattice and weights: # No comment                            
   0.00000000  0.00000000  0.00000000       1.000

 position of ions in fractional coordinates (direct lattice) 
   0.63642800  0.56745700  0.52458225
   0.50000000  0.36498500  0.52456650
   0.36357200  0.56745700  0.52458225
   0.50000000  0.50000000  0.50000000

 position of ions in cartesian coordinates  (Angst):
   3.81856800  3.97219900  4.19665800
   3.00000000  2.55489500  4.19653200
   2.18143200  3.97219900  4.19665800
   3.00000000  3.50000000  4.00000000



--------------------------------------------------------------------------------------------------------


 k-point  1 :   0.0000 0.0000 0.0000  plane waves:    6075

 maximum and minimum number of plane-waves per node :      6075     6075

 maximum number of plane-waves:      6075
 maximum index in each direction: 
   IXMAX=    9   IYMAX=   11   IZMAX=   13
   IXMIN=   -9   IYMIN=  -11   IZMIN=  -13


 serial   3D FFT for wavefunctions
 parallel 3D FFT for charge:
    minimum data exchange during FFTs selected (reduces bandwidth)


 total amount of memory used by VASP MPI-rank0    49277. kBytes
=======================================================================

   base      :      30000. kBytes
   nonl-proj :       1166. kBytes
   fftplans  :       6115. kBytes
   grid      :      11594. kBytes
   one-center:         12. kBytes
   wavefun   :        390. kBytes

     INWAV:  cpu time    0.0156: real time    0.0034
 Broyden mixing: mesh for mixing (old mesh)
   NGX = 19   NGY = 23   NGZ = 27
  (NGX  = 60   NGY  = 72   NGZ  = 80)
  gives a total of  11799 points

 charge density for first step will be calculated from the start-wavefunctions


--------------------------------------------------------------------------------------------------------


 Maximum index for augmentation-charges          767 (set IRDMAX)


--------------------------------------------------------------------------------------------------------


 initial charge from wavefunction
 First call to EWALD:  gamma=   0.255
 Maximum number of real-space cells 3x 3x 2
 Maximum number of reciprocal cells 2x 3x 3

    FEWALD:  cpu time    0.0000: real time    0.0008


--------------------------------------- Iteration      1(   1)  ---------------------------------------


    POTLOK:  cpu time    0.1250: real time    0.1285
    SETDIJ:  cpu time    0.0000: real time    0.0033
     EDDAV:  cpu time    0.0625: real time    0.0585
       DOS:  cpu time    0.0000: real time    0.0002
    CHARGE:  cpu time    0.0156: real time    0.0201
    MIXING:  cpu time    0.0156: real time    0.0044
    --------------------------------------------
      LOOP:  cpu time    0.2188: real time    0.2151

 eigenvalue-minimisations  :    24
 total energy-change (2. order) :-0.1965828E+02  (-0.6954573E+00)
 number of electron       8.0000067 magnetization 
 augmentation part        0.3808040 magnetization 

 Broyden mixing:
  rms(total) = 0.41464E+00    rms(broyden)= 0.41443E+00
  rms(prec ) = 0.59397E+00
  weight for this iteration     100.00

 Free energy of the ion-electron system (eV)
  ---------------------------------------------------
  alpha Z        PSCENC =         0.68708806
  Ewald energy   TEWEN  =        68.73219124
  -Hartree energ DENC   =      -307.82419218
  -exchange      EXHF   =         0.00000000
  -V(xc)+E(xc)   XCENC  =        28.80988846
  PAW double counting   =       659.70460433     -661.29936070
  entropy T*S    EENTRO =         0.01159581
  eigenvalues    EBANDS =      -110.39099254
  atomic energy  EATOM  =       301.91090041
  Solvation  Ediel_sol  =         0.00000000
  ---------------------------------------------------
  free energy    TOTEN  =       -19.65827712 eV

  energy without entropy =      -19.66987293  energy(sigma->0) =      -19.66214239


--------------------------------------------------------------------------------------------------------




--------------------------------------- Iteration      1(   2)  ---------------------------------------


    POTLOK:  cpu time    0.1094: real time    0.1166
    SETDIJ:  cpu time    0.0000: real time    0.0034
     EDDAV:  cpu time    0.0469: real time    0.0412
       DOS:  cpu time    0.0000: real time    0.0002
    CHARGE:  cpu time    0.0156: real time    0.0143
    MIXING:  cpu time    0.0000: real time    0.0047
    --------------------------------------------
      LOOP:  cpu time    0.1719: real time    0.1804

 eigenvalue-minimisations  :    16
 total energy-change (2. order) : 0.4307721E+00  (-0.2302352E+00)
 number of electron       8.0000063 magnetization 
 augmentation part        0.3420022 magnetization 

 Broyden mixing:
  rms(total) = 0.35671E-01    rms(broyden)= 0.35296E-01
  rms(prec ) = 0.51063E-01
  weight for this iteration     100.00

 eigenvalues of (default mixing * dielectric matrix)
  average eigenvalue GAMMA=   1.0630
  1.0630

 Free energy of the ion-electron system (eV)
  ---------------------------------------------------
  alpha Z        PSCENC =         0.68708806
  Ewald energy   TEWEN  =        68.73219124
  -Hartree energ DENC   =      -316.90403927
  -exchange      EXHF   =         0.00000000
  -V(xc)+E(xc)   XCENC  =        29.30727591
  PAW double counting   =       654.27791949     -655.96433036
  entropy T*S    EENTRO =         0.01159581
  eigenvalues    EBANDS =      -101.28610629
  atomic energy  EATOM  =       301.91090041
  Solvation  Ediel_sol  =         0.00000000
  ---------------------------------------------------
  free energy    TOTEN  =       -19.22750501 eV

  energy without entropy =      -19.23910082  energy(sigma->0) =      -19.23137028


--------------------------------------------------------------------------------------------------------




--------------------------------------- Iteration      1(   3)  ---------------------------------------


    POTLOK:  cpu time    0.1250: real time    0.1239
    SETDIJ:  cpu time    0.0000: real time    0.0039
     EDDAV:  cpu time    0.0625: real time    0.0571
       DOS:  cpu time    0.0000: real time    0.0005
    CHARGE:  cpu time    0.0156: real time    0.0163
    MIXING:  cpu time    0.0000: real time    0.0066
    --------------------------------------------
      LOOP:  cpu time    0.2188: real time    0.2084

 eigenvalue-minimisations  :    32
 total energy-change (2. order) : 0.4812448E-04  (-0.2878375E-02)
 number of electron       8.0000063 magnetization 
 augmentation part        0.3397631 magnetization 

 Broyden mixing:
  rms(total) = 0.14229E-01    rms(broyden)= 0.14139E-01
  rms(prec ) = 0.20670E-01
  weight for this iteration     100.00

 eigenvalues of (default mixing * dielectric matrix)
  average eigenvalue GAMMA=   0.9559
  0.9559  0.9559

 Free energy of the ion-electron system (eV)
  ---------------------------------------------------
  alpha Z        PSCENC =         0.68708806
  Ewald energy   TEWEN  =        68.73219124
  -Hartree energ DENC   =      -317.89437903
  -exchange      EXHF   =         0.00000000
  -V(xc)+E(xc)   XCENC  =        29.36357199
  PAW double counting   =       648.98574619     -650.67180876
  entropy T*S    EENTRO =         0.01159581
  eigenvalues    EBANDS =      -100.35236279
  atomic energy  EATOM  =       301.91090041
  Solvation  Ediel_sol  =         0.00000000
  ---------------------------------------------------
  free energy    TOTEN  =       -19.22745689 eV

  energy without entropy =      -19.23905270  energy(sigma->0) =      -19.23132216


--------------------------------------------------------------------------------------------------------




--------------------------------------- Iteration      1(   4)  ---------------------------------------


    POTLOK:  cpu time    0.1250: real time    0.1250
    SETDIJ:  cpu time    0.0156: real time    0.0039
     EDDAV:  cpu time    0.0312: real time    0.0406
       DOS:  cpu time    0.0000: real time    0.0003
    CHARGE:  cpu time    0.0156: real time    0.0132
    MIXING:  cpu time    0.0000: real time    0.0068
    --------------------------------------------
      LOOP:  cpu time    0.1719: real time    0.1897

 eigenvalue-minimisations  :    16
 total energy-change (2. order) : 0.1409040E-03  (-0.1395104E-04)
 number of electron       8.0000063 magnetization 
 augmentation part        0.3399296 magnetization 

 Broyden mixing:
  rms(total) = 0.76241E-02    rms(broyden)= 0.76189E-02
  rms(prec ) = 0.13369E-01
  weight for this iteration     100.00

 eigenvalues of (default mixing * dielectric matrix)
  average eigenvalue GAMMA=   1.4711
  1.0230  1.0230  2.3673

 Free energy of the ion-electron system (eV)
  ---------------------------------------------------
  alpha Z        PSCENC =         0.68708806
  Ewald energy   TEWEN  =        68.73219124
  -Hartree energ DENC   =      -318.05650450
  -exchange      EXHF   =         0.00000000
  -V(xc)+E(xc)   XCENC  =        29.37389551
  PAW double counting   =       649.69949658     -651.38250939
  entropy T*S    EENTRO =         0.01159581
  eigenvalues    EBANDS =      -100.20346970
  atomic energy  EATOM  =       301.91090041
  Solvation  Ediel_sol  =         0.00000000
  ---------------------------------------------------
  free energy    TOTEN  =       -19.22731598 eV

  energy without entropy =      -19.23891179  energy(sigma->0) =      -19.23118125


--------------------------------------------------------------------------------------------------------




--------------------------------------- Iteration      1(   5)  ---------------------------------------


    POTLOK:  cpu time    0.1250: real time    0.1311
    SETDIJ:  cpu time    0.0000: real time    0.0035
     EDDAV:  cpu time    0.0469: real time    0.0401
       DOS:  cpu time    0.0000: real time    0.0004
    CHARGE:  cpu time    0.0000: real time    0.0105
    MIXING:  cpu time    0.0156: real time    0.0047
    --------------------------------------------
      LOOP:  cpu time    0.1875: real time    0.1904

 eigenvalue-minimisations  :    16
 total energy-change (2. order) : 0.3908944E-05  (-0.3921288E-04)
 number of electron       8.0000063 magnetization 
 augmentation part        0.3398618 magnetization 

 Broyden mixing:
  rms(total) = 0.29207E-02    rms(broyden)= 0.29196E-02
  rms(prec ) = 0.47385E-02
  weight for this iteration     100.00

 eigenvalues of (default mixing * dielectric matrix)
  average eigenvalue GAMMA=   1.7080
  2.7304  1.0472  1.0472  2.0071

 Free energy of the ion-electron system (eV)
  ---------------------------------------------------
  alpha Z        PSCENC =         0.68708806
  Ewald energy   TEWEN  =        68.73219124
  -Hartree energ DENC   =      -318.51270582
  -exchange      EXHF   =         0.00000000
  -V(xc)+E(xc)   XCENC  =        29.40064734
  PAW double counting   =       650.33827738     -652.01638907
  entropy T*S    EENTRO =         0.01159581
  eigenvalues    EBANDS =       -99.77891741
  atomic energy  EATOM  =       301.91090041
  Solvation  Ediel_sol  =         0.00000000
  ---------------------------------------------------
  free energy    TOTEN  =       -19.22731207 eV

  energy without entropy =      -19.23890788  energy(sigma->0) =      -19.23117734


--------------------------------------------------------------------------------------------------------




--------------------------------------- Iteration      1(   6)  ---------------------------------------


    POTLOK:  cpu time    0.1250: real time    0.1206
    SETDIJ:  cpu time    0.0000: real time    0.0028
     EDDAV:  cpu time    0.0312: real time    0.0387
       DOS:  cpu time    0.0000: real time    0.0002
    CHARGE:  cpu time    0.0156: real time    0.0161
    MIXING:  cpu time    0.0156: real time    0.0065
    --------------------------------------------
      LOOP:  cpu time    0.1875: real time    0.1849

 eigenvalue-minimisations  :    16
 total energy-change (2. order) :-0.3145429E-03  (-0.9578161E-05)
 number of electron       8.0000063 magnetization 
 augmentation part        0.3396693 magnetization 

 Broyden mixing:
  rms(total) = 0.90449E-03    rms(broyden)= 0.90279E-03
  rms(prec ) = 0.19125E-02
  weight for this iteration     100.00

 eigenvalues of (default mixing * dielectric matrix)
  average eigenvalue GAMMA=   1.7627
  3.2628  2.5039  1.0558  1.0558  0.9355

 Free energy of the ion-electron system (eV)
  ---------------------------------------------------
  alpha Z        PSCENC =         0.68708806
  Ewald energy   TEWEN  =        68.73219124
  -Hartree energ DENC   =      -318.64297271
  -exchange      EXHF   =         0.00000000
  -V(xc)+E(xc)   XCENC  =        29.40505215
  PAW double counting   =       648.95763378     -650.63607261
  entropy T*S    EENTRO =         0.01159581
  eigenvalues    EBANDS =       -99.65304274
  atomic energy  EATOM  =       301.91090041
  Solvation  Ediel_sol  =         0.00000000
  ---------------------------------------------------
  free energy    TOTEN  =       -19.22762662 eV

  energy without entropy =      -19.23922243  energy(sigma->0) =      -19.23149189


--------------------------------------------------------------------------------------------------------




--------------------------------------- Iteration      1(   7)  ---------------------------------------


    POTLOK:  cpu time    0.1250: real time    0.1228
    SETDIJ:  cpu time    0.0000: real time    0.0031
     EDDAV:  cpu time    0.0312: real time    0.0409
       DOS:  cpu time    0.0000: real time    0.0001
    CHARGE:  cpu time    0.0156: real time    0.0087
    MIXING:  cpu time    0.0000: real time    0.0046
    --------------------------------------------
      LOOP:  cpu time    0.1719: real time    0.1802

 eigenvalue-minimisations  :    24
 total energy-change (2. order) :-0.1160328E-03  (-0.2084484E-05)
 number of electron       8.0000063 magnetization 
 augmentation part        0.3397559 magnetization 

 Broyden mixing:
  rms(total) = 0.58241E-03    rms(broyden)= 0.58236E-03
  rms(prec ) = 0.99090E-03
  weight for this iteration     100.00

 eigenvalues of (default mixing * dielectric matrix)
  average eigenvalue GAMMA=   1.8566
  3.8004  2.4927  1.8199  1.0558  1.0558  0.9148

 Free energy of the ion-electron system (eV)
  ---------------------------------------------------
  alpha Z        PSCENC =         0.68708806
  Ewald energy   TEWEN  =        68.73219124
  -Hartree energ DENC   =      -318.64881469
  -exchange      EXHF   =         0.00000000
  -V(xc)+E(xc)   XCENC  =        29.40425118
  PAW double counting   =       648.65761219     -650.33589692
  entropy T*S    EENTRO =         0.01159581
  eigenvalues    EBANDS =       -99.64666993
  atomic energy  EATOM  =       301.91090041
  Solvation  Ediel_sol  =         0.00000000
  ---------------------------------------------------
  free energy    TOTEN  =       -19.22774265 eV

  energy without entropy =      -19.23933846  energy(sigma->0) =      -19.23160792


--------------------------------------------------------------------------------------------------------




--------------------------------------- Iteration      1(   8)  ---------------------------------------


    POTLOK:  cpu time    0.1250: real time    0.1209
    SETDIJ:  cpu time    0.0000: real time    0.0038
     EDDAV:  cpu time    0.0312: real time    0.0339
       DOS:  cpu time    0.0000: real time    0.0002
    CHARGE:  cpu time    0.0156: real time    0.0129
    MIXING:  cpu time    0.0156: real time    0.0058
    --------------------------------------------
      LOOP:  cpu time    0.1875: real time    0.1775

 eigenvalue-minimisations  :    16
 total energy-change (2. order) :-0.7769693E-04  (-0.5926028E-06)
 number of electron       8.0000063 magnetization 
 augmentation part        0.3397556 magnetization 

 Broyden mixing:
  rms(total) = 0.20723E-03    rms(broyden)= 0.20719E-03
  rms(prec ) = 0.44461E-03
  weight for this iteration     100.00

 eigenvalues of (default mixing * dielectric matrix)
  average eigenvalue GAMMA=   2.0071
  4.6725  2.8832  2.2489  0.9458  1.0615  1.0615  1.1763

 Free energy of the ion-electron system (eV)
  ---------------------------------------------------
  alpha Z        PSCENC =         0.68708806
  Ewald energy   TEWEN  =        68.73219124
  -Hartree energ DENC   =      -318.66189436
  -exchange      EXHF   =         0.00000000
  -V(xc)+E(xc)   XCENC  =        29.40459853
  PAW double counting   =       648.88284671     -650.56112540
  entropy T*S    EENTRO =         0.01159581
  eigenvalues    EBANDS =       -99.63402134
  atomic energy  EATOM  =       301.91090041
  Solvation  Ediel_sol  =         0.00000000
  ---------------------------------------------------
  free energy    TOTEN  =       -19.22782034 eV

  energy without entropy =      -19.23941616  energy(sigma->0) =      -19.23168562


--------------------------------------------------------------------------------------------------------




--------------------------------------- Iteration      1(   9)  ---------------------------------------


    POTLOK:  cpu time    0.1094: real time    0.1089
    SETDIJ:  cpu time    0.0000: real time    0.0031
     EDDAV:  cpu time    0.0312: real time    0.0379
       DOS:  cpu time    0.0000: real time    0.0001
    CHARGE:  cpu time    0.0156: real time    0.0095
    MIXING:  cpu time    0.0000: real time    0.0077
    --------------------------------------------
      LOOP:  cpu time    0.1562: real time    0.1672

 eigenvalue-minimisations  :    16
 total energy-change (2. order) :-0.3291768E-04  (-0.3320473E-06)
 number of electron       8.0000063 magnetization 
 augmentation part        0.3397385 magnetization 

 Broyden mixing:
  rms(total) = 0.10598E-03    rms(broyden)= 0.10589E-03
  rms(prec ) = 0.19608E-03
  weight for this iteration     100.00

 eigenvalues of (default mixing * dielectric matrix)
  average eigenvalue GAMMA=   2.1673
  5.3150  3.3256  2.5336  2.0534  1.0644  1.0644  0.9666  1.0151

 Free energy of the ion-electron system (eV)
  ---------------------------------------------------
  alpha Z        PSCENC =         0.68708806
  Ewald energy   TEWEN  =        68.73219124
  -Hartree energ DENC   =      -318.66363542
  -exchange      EXHF   =         0.00000000
  -V(xc)+E(xc)   XCENC  =        29.40448399
  PAW double counting   =       648.96302170     -650.64140886
  entropy T*S    EENTRO =         0.01159581
  eigenvalues    EBANDS =       -99.63209018
  atomic energy  EATOM  =       301.91090041
  Solvation  Ediel_sol  =         0.00000000
  ---------------------------------------------------
  free energy    TOTEN  =       -19.22785326 eV

  energy without entropy =      -19.23944907  energy(sigma->0) =      -19.23171853


--------------------------------------------------------------------------------------------------------




--------------------------------------- Iteration      1(  10)  ---------------------------------------


    POTLOK:  cpu time    0.1250: real time    0.1200
    SETDIJ:  cpu time    0.0000: real time    0.0031
     EDDAV:  cpu time    0.0312: real time    0.0374
       DOS:  cpu time    0.0000: real time    0.0002
    CHARGE:  cpu time    0.0156: real time    0.0112
    MIXING:  cpu time    0.0000: real time    0.0033
    --------------------------------------------
      LOOP:  cpu time    0.1719: real time    0.1752

 eigenvalue-minimisations  :    16
 total energy-change (2. order) :-0.1222779E-04  (-0.1039092E-06)
 number of electron       8.0000063 magnetization 
 augmentation part        0.3397400 magnetization 

 Broyden mixing:
  rms(total) = 0.49665E-04    rms(broyden)= 0.49655E-04
  rms(prec ) = 0.83321E-04
  weight for this iteration     100.00

 eigenvalues of (default mixing * dielectric matrix)
  average eigenvalue GAMMA=   2.1347
  5.6470  3.4318  2.5408  2.1692  1.3589  0.9561  0.9848  1.0620  1.0620

 Free energy of the ion-electron system (eV)
  ---------------------------------------------------
  alpha Z        PSCENC =         0.68708806
  Ewald energy   TEWEN  =        68.73219124
  -Hartree energ DENC   =      -318.66484698
  -exchange      EXHF   =         0.00000000
  -V(xc)+E(xc)   XCENC  =        29.40454587
  PAW double counting   =       648.96042835     -650.63875672
  entropy T*S    EENTRO =         0.01159581
  eigenvalues    EBANDS =       -99.63101152
  atomic energy  EATOM  =       301.91090041
  Solvation  Ediel_sol  =         0.00000000
  ---------------------------------------------------
  free energy    TOTEN  =       -19.22786549 eV

  energy without entropy =      -19.23946130  energy(sigma->0) =      -19.23173076


--------------------------------------------------------------------------------------------------------




--------------------------------------- Iteration      1(  11)  ---------------------------------------


    POTLOK:  cpu time    0.1250: real time    0.1250
    SETDIJ:  cpu time    0.0156: real time    0.0026
     EDDAV:  cpu time    0.0312: real time    0.0432
       DOS:  cpu time    0.0000: real time    0.0002
    CHARGE:  cpu time    0.0156: real time    0.0103
    MIXING:  cpu time    0.0000: real time    0.0040
    --------------------------------------------
      LOOP:  cpu time    0.1875: real time    0.1853

 eigenvalue-minimisations  :    24
 total energy-change (2. order) :-0.2262538E-05  (-0.1516865E-07)
 number of electron       8.0000063 magnetization 
 augmentation part        0.3397436 magnetization 

 Broyden mixing:
  rms(total) = 0.31181E-04    rms(broyden)= 0.31173E-04
  rms(prec ) = 0.50349E-04
  weight for this iteration     100.00

 eigenvalues of (default mixing * dielectric matrix)
  average eigenvalue GAMMA=   2.2502
  6.0366  3.9946  2.8341  2.5034  1.9068  0.9487  0.9987  1.0702  1.0702  1.1385

 Free energy of the ion-electron system (eV)
  ---------------------------------------------------
  alpha Z        PSCENC =         0.68708806
  Ewald energy   TEWEN  =        68.73219124
  -Hartree energ DENC   =      -318.66325690
  -exchange      EXHF   =         0.00000000
  -V(xc)+E(xc)   XCENC  =        29.40444837
  PAW double counting   =       648.94520076     -650.62352381
  entropy T*S    EENTRO =         0.01159581
  eigenvalues    EBANDS =       -99.63251170
  atomic energy  EATOM  =       301.91090041
  Solvation  Ediel_sol  =         0.00000000
  ---------------------------------------------------
  free energy    TOTEN  =       -19.22786775 eV

  energy without entropy =      -19.23946356  energy(sigma->0) =      -19.23173302


--------------------------------------------------------------------------------------------------------




--------------------------------------- Iteration      1(  12)  ---------------------------------------


    POTLOK:  cpu time    0.1250: real time    0.1248
    SETDIJ:  cpu time    0.0000: real time    0.0021
     EDDAV:  cpu time    0.0156: real time    0.0216
       DOS:  cpu time    0.0000: real time    0.0002
    --------------------------------------------
      LOOP:  cpu time    0.1406: real time    0.1486

 eigenvalue-minimisations  :    16
 total energy-change (2. order) :-0.7990760E-06  (-0.1035416E-07)
 number of electron       8.0000063 magnetization 
 augmentation part        0.3397436 magnetization 

 Free energy of the ion-electron system (eV)
  ---------------------------------------------------
  alpha Z        PSCENC =         0.68708806
  Ewald energy   TEWEN  =        68.73219124
  -Hartree energ DENC   =      -318.66330922
  -exchange      EXHF   =         0.00000000
  -V(xc)+E(xc)   XCENC  =        29.40444518
  PAW double counting   =       648.93026409     -650.60859249
  entropy T*S    EENTRO =         0.01159581
  eigenvalues    EBANDS =       -99.63245163
  atomic energy  EATOM  =       301.91090041
  Solvation  Ediel_sol  =         0.00000000
  ---------------------------------------------------
  free energy    TOTEN  =       -19.22786855 eV

  energy without entropy =      -19.23946436  energy(sigma->0) =      -19.23173382


--------------------------------------------------------------------------------------------------------




 average (electrostatic) potential at core
  the test charge radii are     0.5201  0.7089
  (the norm of the test charge is              1.0000)
       1 -43.5450       2 -43.5415       3 -43.5450       4 -72.3769



 E-fermi :  -5.2040     XC(G=0):  -1.6646     alpha+bet : -0.5051


 k-point     1 :       0.0000    0.0000    0.0000
  band No.  band energies     occupation 
      1     -21.0487      2.00000
      2     -11.6979      2.00000
      3     -11.6973      2.00000
      4      -5.3724      2.00000
      5      -1.0242     -0.00000
      6       1.4951      0.00000
      7       1.6732      0.00000
      8       1.8540      0.00000


--------------------------------------------------------------------------------------------------------


 soft charge-density along one line, spin component           1
         0         1         2         3         4         5         6         7         8         9
 total charge-density along one line

 pseudopotential strength for first ion, spin component:           1
 -2.365  -4.082   0.001   0.000   0.002
 -4.082  -6.956   0.004   0.002   0.007
  0.001   0.004  -0.325   0.001   0.004
  0.000   0.002   0.001  -0.327   0.002
  0.002   0.007   0.004   0.002  -0.320
 total augmentation occupancy for first ion, spin component:           1
  4.068  -0.794  -0.343  -0.135  -0.594
 -0.794   0.181   0.066   0.029   0.114
 -0.343   0.066   0.042   0.008   0.043
 -0.135   0.029   0.008   0.042   0.014
 -0.594   0.114   0.043   0.014   0.092


------------------------ aborting loop because EDIFF is reached ----------------------------------------


    CHARGE:  cpu time    0.0312: real time    0.0114
    FORLOC:  cpu time    0.0000: real time    0.0113
    FORNL :  cpu time    0.0156: real time    0.0084
    STRESS:  cpu time    0.0469: real time    0.0519
    FORCOR:  cpu time    0.1250: real time    0.1193
    FORHAR:  cpu time    0.0156: real time    0.0377
    MIXING:  cpu time    0.0156: real time    0.0086
    OFIELD:  cpu time    0.0000: real time    0.0000

  FORCE on cell =-STRESS in cart. coord.  units (eV):
  Direction    XX          YY          ZZ          XY          YZ          ZX
  --------------------------------------------------------------------------------------
  Alpha Z     0.68709     0.68709     0.68709
  Ewald      88.91554    60.35352   -80.53689    -0.00000     0.02477    -0.00000
  Hartree   139.57227   112.98217    66.10898    -0.00000     0.01507    -0.00000
  E(xc)     -31.30298   -31.30393   -31.69096    -0.00000    -0.00002    -0.00000
  Local    -292.66232  -237.52482   -82.60207     0.00000    -0.03722     0.00000
  n-local   -24.16168   -24.15015   -25.89770     0.00000     0.00024     0.00000
  augment     1.20062     1.20155     2.07739    -0.00000    -0.00036     0.00000
  Kinetic   120.20099   120.15644   151.36409     0.00000    -0.01072    -0.00000
  Fock        0.00000     0.00000     0.00000     0.00000     0.00000     0.00000
  -------------------------------------------------------------------------------------
  Total       2.44953     2.40187    -0.49006     0.00000    -0.00823     0.00000
  in kB      11.68029    11.45304    -2.33680     0.00000    -0.03925     0.00000
  external pressure =        6.93 kB  Pullay stress =        0.00 kB


 VOLUME and BASIS-vectors are now :
 -----------------------------------------------------------------------------
  energy-cutoff  :      400.00
  volume of cell :      336.00
      direct lattice vectors                 reciprocal lattice vectors
     6.000000000  0.000000000  0.000000000     0.166666667  0.000000000  0.000000000
     0.000000000  7.000000000  0.000000000     0.000000000  0.142857143  0.000000000
     0.000000000  0.000000000  8.000000000     0.000000000  0.000000000  0.125000000

  length of vectors
     6.000000000  7.000000000  8.000000000     0.166666667  0.142857143  0.125000000


 FORCES acting on ions
    electron-ion (+dipol)            ewald-force                    non-local-force                 convergence-correction
 -----------------------------------------------------------------------------------------------
   -.622E+02 -.365E+02 -.135E+02   0.715E+02 0.419E+02 0.157E+02   -.729E+01 -.420E+01 -.155E+01   0.431E-05 0.433E-05 0.129E-04
   0.161E-13 0.730E+02 -.135E+02   0.137E-16 -.836E+02 0.157E+02   0.000E+00 0.841E+01 -.154E+01   0.246E-15 -.306E-05 0.170E-04
   0.622E+02 -.365E+02 -.135E+02   -.715E+02 0.419E+02 0.157E+02   0.729E+01 -.420E+01 -.155E+01   -.431E-05 0.433E-05 0.129E-04
   0.962E-13 0.763E-01 0.284E+02   0.951E-16 -.877E-01 -.471E+02   0.000E+00 0.222E-01 0.167E+02   0.103E-13 0.233E-04 0.109E-04
 -----------------------------------------------------------------------------------------------
   0.251E-13 -.273E-01 -.120E+02   0.951E-16 -.555E-16 0.000E+00   0.000E+00 0.276E-01 0.120E+02   0.999E-14 0.289E-04 0.537E-04


 POSITION                                       TOTAL-FORCE (eV/Angst)
 -----------------------------------------------------------------------------------
      3.81857      3.97220      4.19666         1.968251      1.135456      0.662050
      3.00000      2.55489      4.19653         0.000000     -2.281717      0.662690
      2.18143      3.97220      4.19666        -1.968251      1.135456      0.662050
      3.00000      3.50000      4.00000         0.000000      0.010804     -1.986790
 -----------------------------------------------------------------------------------
    total drift:                                0.000000      0.000283      0.000309


--------------------------------------------------------------------------------------------------------



  FREE ENERGIE OF THE ION-ELECTRON SYSTEM (eV)
  ---------------------------------------------------
  free  energy   TOTEN  =       -19.22786855 eV

  energy  without entropy=      -19.23946436  energy(sigma->0) =      -19.23173382



--------------------------------------------------------------------------------------------------------


    POTLOK:  cpu time    0.1250: real time    0.1263


--------------------------------------------------------------------------------------------------------


 NEB: the previous image is higher in energy: F
 NEB: the next image is higher in energy    : T
 NEB: only next energy greater

 NEB: Tangent
 ----------------------------------------------
      0.00000      0.00000     -0.57747
      0.00000      0.00000     -0.57710
      0.00000      0.00000     -0.57747
      0.00000      0.00000      0.00000

 NEB: forces: par spring, perp REAL, dneb     0.000000    4.413641    0.000000
 NEB: distance to prev, next image, angle between     0.340549    0.340549  180.000000
 NEB: projections on to tangent (spring, REAL)     0.000000   -1.147073

 stress matrix after NEB project (eV)
      2.44953      0.00000      0.00000
      0.00000      2.40187     -0.00823
      0.00000     -0.00823     -0.49006
  FORCES: max atom, RMS     2.281717    2.206821
  FORCE total and by dimension    4.413641    2.281717
  Stress total and by dimension    3.465467    2.449528
 
 OPT: Flag T
 OPT: LBFGS Step
 OPT: LBFGS start
 OPT: LBFGS, initial finite difference
 OPT: LBFGS: positions in Cartesian coordinates
      3.81971063      3.97285817      4.19665779
      3.00000000      2.55357039      4.19653241
      2.18028937      3.97285817      4.19665779
      3.00000000      3.50000627      3.99884661
 OPT: LBFGS END subroutine


--------------------------------------------------------------------------------------------------------


    WAVPRE:  cpu time    0.4062: real time    0.4119
    FEWALD:  cpu time    0.0000: real time    0.0005
    ORTHCH:  cpu time    0.0156: real time    0.0025
     LOOP+:  cpu time    2.9688: real time    2.9984


--------------------------------------- Iteration      2(   1)  ---------------------------------------


    POTLOK:  cpu time    0.1250: real time    0.1228
    SETDIJ:  cpu time    0.0000: real time    0.0022
     EDDAV:  cpu time    0.0312: real time    0.0428
       DOS:  cpu time    0.0156: real time    0.0004
    CHARGE:  cpu time    0.0000: real time    0.0138
    MIXING:  cpu time    0.0156: real time    0.0045
    --------------------------------------------
      LOOP:  cpu time    0.1875: real time    0.1865

 eigenvalue-minimisations  :    16
 total energy-change (2. order) :-0.1115478E-01  (-0.1006237E-02)
 number of electron       8.0000062 magnetization 
 augmentation part        0.3386826 magnetization 

 Broyden mixing:
  rms(total) = 0.43200E-02    rms(broyden)= 0.43064E-02
  rms(prec ) = 0.60383E-02
  weight for this iteration     100.00

 Free energy of the ion-electron system (eV)
  ---------------------------------------------------
  alpha Z        PSCENC =         0.68708806
  Ewald energy   TEWEN  =        68.34905455
  -Hartree energ DENC   =      -318.47859001
  -exchange      EXHF   =         0.00000000
  -V(xc)+E(xc)   XCENC  =        29.39468992
  PAW double counting   =       648.93442204     -650.61275004
  entropy T*S    EENTRO =         0.01159581
  eigenvalues    EBANDS =       -99.43543328
  atomic energy  EATOM  =       301.91090041
  Solvation  Ediel_sol  =         0.00000000
  ---------------------------------------------------
  free energy    TOTEN  =       -19.23902254 eV

  energy without entropy =      -19.25061835  energy(sigma->0) =      -19.24288781


--------------------------------------------------------------------------------------------------------




--------------------------------------- Iteration      2(   2)  ---------------------------------------


    POTLOK:  cpu time    0.1094: real time    0.1184
    SETDIJ:  cpu time    0.0156: real time    0.0027
     EDDAV:  cpu time    0.0312: real time    0.0425
       DOS:  cpu time    0.0000: real time    0.0001
    CHARGE:  cpu time    0.0156: real time    0.0137
    MIXING:  cpu time    0.0000: real time    0.0043
    --------------------------------------------
      LOOP:  cpu time    0.1719: real time    0.1818

 eigenvalue-minimisations  :    16
 total energy-change (2. order) : 0.4152807E-04  (-0.2247375E-04)
 number of electron       8.0000062 magnetization 
 augmentation part        0.3388912 magnetization 

 Broyden mixing:
  rms(total) = 0.20106E-02    rms(broyden)= 0.20095E-02
  rms(prec ) = 0.24837E-02
  weight for this iteration     100.00

 eigenvalues of (default mixing * dielectric matrix)
  average eigenvalue GAMMA=   1.2821
  1.2821

 Free energy of the ion-electron system (eV)
  ---------------------------------------------------
  alpha Z        PSCENC =         0.68708806
  Ewald energy   TEWEN  =        68.34905455
  -Hartree energ DENC   =      -318.38885990
  -exchange      EXHF   =         0.00000000
  -V(xc)+E(xc)   XCENC  =        29.38956536
  PAW double counting   =       648.17864324     -649.85555980
  entropy T*S    EENTRO =         0.01159581
  eigenvalues    EBANDS =       -99.52140873
  atomic energy  EATOM  =       301.91090041
  Solvation  Ediel_sol  =         0.00000000
  ---------------------------------------------------
  free energy    TOTEN  =       -19.23898101 eV

  energy without entropy =      -19.25057682  energy(sigma->0) =      -19.24284628


--------------------------------------------------------------------------------------------------------




--------------------------------------- Iteration      2(   3)  ---------------------------------------


    POTLOK:  cpu time    0.1250: real time    0.1227
    SETDIJ:  cpu time    0.0000: real time    0.0034
     EDDAV:  cpu time    0.0625: real time    0.0535
       DOS:  cpu time    0.0000: real time    0.0002
    CHARGE:  cpu time    0.0156: real time    0.0146
    MIXING:  cpu time    0.0000: real time    0.0042
    --------------------------------------------
      LOOP:  cpu time    0.2031: real time    0.1987

 eigenvalue-minimisations  :    24
 total energy-change (2. order) : 0.3716737E-05  (-0.3037957E-05)
 number of electron       8.0000062 magnetization 
 augmentation part        0.3390076 magnetization 

 Broyden mixing:
  rms(total) = 0.11621E-02    rms(broyden)= 0.11616E-02
  rms(prec ) = 0.12914E-02
  weight for this iteration     100.00

 eigenvalues of (default mixing * dielectric matrix)
  average eigenvalue GAMMA=   1.3941
  1.3941  1.3941

 Free energy of the ion-electron system (eV)
  ---------------------------------------------------
  alpha Z        PSCENC =         0.68708806
  Ewald energy   TEWEN  =        68.34905455
  -Hartree energ DENC   =      -318.35976326
  -exchange      EXHF   =         0.00000000
  -V(xc)+E(xc)   XCENC  =        29.38789633
  PAW double counting   =       647.54815251     -649.22433509
  entropy T*S    EENTRO =         0.01159581
  eigenvalues    EBANDS =       -99.54956660
  atomic energy  EATOM  =       301.91090041
  Solvation  Ediel_sol  =         0.00000000
  ---------------------------------------------------
  free energy    TOTEN  =       -19.23897729 eV

  energy without entropy =      -19.25057310  energy(sigma->0) =      -19.24284256


--------------------------------------------------------------------------------------------------------




--------------------------------------- Iteration      2(   4)  ---------------------------------------


    POTLOK:  cpu time    0.1094: real time    0.1150
    SETDIJ:  cpu time    0.0156: real time    0.0035
     EDDAV:  cpu time    0.0312: real time    0.0314
       DOS:  cpu time    0.0000: real time    0.0001
    --------------------------------------------
      LOOP:  cpu time    0.1562: real time    0.1501

 eigenvalue-minimisations  :    16
 total energy-change (2. order) :-0.2269701E-06  (-0.5071979E-06)
 number of electron       8.0000062 magnetization 
 augmentation part        0.3390076 magnetization 

 Free energy of the ion-electron system (eV)
  ---------------------------------------------------
  alpha Z        PSCENC =         0.68708806
  Ewald energy   TEWEN  =        68.34905455
  -Hartree energ DENC   =      -318.36943476
  -exchange      EXHF   =         0.00000000
  -V(xc)+E(xc)   XCENC  =        29.38837792
  PAW double counting   =       647.18653881     -648.86262060
  entropy T*S    EENTRO =         0.01159581
  eigenvalues    EBANDS =       -99.54047772
  atomic energy  EATOM  =       301.91090041
  Solvation  Ediel_sol  =         0.00000000
  ---------------------------------------------------
  free energy    TOTEN  =       -19.23897752 eV

  energy without entropy =      -19.25057333  energy(sigma->0) =      -19.24284279


--------------------------------------------------------------------------------------------------------




 average (electrostatic) potential at core
  the test charge radii are     0.5201  0.7089
  (the norm of the test charge is              1.0000)
       1 -43.5235       2 -43.5199       3 -43.5235       4 -72.3764



 E-fermi :  -5.2029     XC(G=0):  -1.6614     alpha+bet : -0.5051


 k-point     1 :       0.0000    0.0000    0.0000
  band No.  band energies     occupation 
      1     -21.0327      2.00000
      2     -11.6834      2.00000
      3     -11.6829      2.00000
      4      -5.3713      2.00000
      5      -1.0260     -0.00000
      6       1.5019      0.00000
      7       1.6731      0.00000
      8       1.8512      0.00000


--------------------------------------------------------------------------------------------------------


 soft charge-density along one line, spin component           1
         0         1         2         3         4         5         6         7         8         9
 total charge-density along one line

 pseudopotential strength for first ion, spin component:           1
 -2.365  -4.081   0.001   0.000   0.002
 -4.081  -6.956   0.004   0.002   0.007
  0.001   0.004  -0.325   0.001   0.004
  0.000   0.002   0.001  -0.328   0.002
  0.002   0.007   0.004   0.002  -0.320
 total augmentation occupancy for first ion, spin component:           1
  4.063  -0.794  -0.341  -0.135  -0.591
 -0.794   0.181   0.066   0.029   0.114
 -0.341   0.066   0.041   0.008   0.043
 -0.135   0.029   0.008   0.042   0.014
 -0.591   0.114   0.043   0.014   0.091


------------------------ aborting loop because EDIFF is reached ----------------------------------------


    CHARGE:  cpu time    0.0000: real time    0.0121
    FORLOC:  cpu time    0.0156: real time    0.0059
    FORNL :  cpu time    0.0000: real time    0.0060
    STRESS:  cpu time    0.0625: real time    0.0527
    FORCOR:  cpu time    0.0938: real time    0.1023
    FORHAR:  cpu time    0.0469: real time    0.0443
    MIXING:  cpu time    0.0156: real time    0.0037
    OFIELD:  cpu time    0.0000: real time    0.0000

  FORCE on cell =-STRESS in cart. coord.  units (eV):
  Direction    XX          YY          ZZ          XY          YZ          ZX
  --------------------------------------------------------------------------------------
  Alpha Z     0.68709     0.68709     0.68709
  Ewald      88.69075    60.12951   -80.47123     0.00000     0.02518     0.00000
  Hartree   139.46363   112.87738    66.01218    -0.00000     0.01517    -0.00000
  E(xc)     -31.28589   -31.28684   -31.67387    -0.00000    -0.00002     0.00000
  Local    -292.41641  -237.28423   -82.52159     0.00000    -0.03751     0.00000
  n-local   -24.10948   -24.09771   -25.85824    -0.00000     0.00025    -0.00000
  augment     1.20048     1.20147     2.07393     0.00000    -0.00037    -0.00000
  Kinetic   120.09783   120.05255   151.25068     0.00000    -0.01082    -0.00000
  Fock        0.00000     0.00000     0.00000     0.00000     0.00000     0.00000
  -------------------------------------------------------------------------------------
  Total       2.32800     2.27921    -0.50104     0.00000    -0.00812     0.00000
  in kB      11.10079    10.86815    -2.38916     0.00000    -0.03873     0.00000
  external pressure =        6.53 kB  Pullay stress =        0.00 kB


 VOLUME and BASIS-vectors are now :
 -----------------------------------------------------------------------------
  energy-cutoff  :      400.00
  volume of cell :      336.00
      direct lattice vectors                 reciprocal lattice vectors
     6.000000000  0.000000000  0.000000000     0.166666667  0.000000000  0.000000000
     0.000000000  7.000000000  0.000000000     0.000000000  0.142857143  0.000000000
     0.000000000  0.000000000  8.000000000     0.000000000  0.000000000  0.125000000

  length of vectors
     6.000000000  7.000000000  8.000000000     0.166666667  0.142857143  0.125000000


 FORCES acting on ions
    electron-ion (+dipol)            ewald-force                    non-local-force                 convergence-correction
 -----------------------------------------------------------------------------------------------
   -.621E+02 -.365E+02 -.135E+02   0.712E+02 0.417E+02 0.157E+02   -.725E+01 -.418E+01 -.154E+01   -.132E-02 -.754E-03 0.304E-03
   0.153E-13 0.728E+02 -.135E+02   -.386E-15 -.834E+02 0.157E+02   0.000E+00 0.837E+01 -.154E+01   0.561E-15 0.155E-02 0.308E-03
   0.621E+02 -.365E+02 -.135E+02   -.712E+02 0.417E+02 0.157E+02   0.725E+01 -.418E+01 -.154E+01   0.132E-02 -.754E-03 0.304E-03
   0.954E-13 0.776E-01 0.284E+02   0.285E-13 -.899E-01 -.471E+02   0.000E+00 0.223E-01 0.168E+02   0.653E-14 0.940E-04 0.698E-02
 -----------------------------------------------------------------------------------------------
   0.173E-13 -.271E-01 -.121E+02   0.951E-16 -.555E-16 0.000E+00   0.000E+00 0.272E-01 0.121E+02   0.631E-14 0.139E-03 0.790E-02


 POSITION                                       TOTAL-FORCE (eV/Angst)
 -----------------------------------------------------------------------------------
      3.81971      3.97286      4.19666         1.892427      1.091804      0.648812
      3.00000      2.55357      4.19653         0.000000     -2.193637      0.649335
      2.18029      3.97286      4.19666        -1.892427      1.091804      0.648812
      3.00000      3.50001      3.99885         0.000000      0.010030     -1.946959
 -----------------------------------------------------------------------------------
    total drift:                                0.000000      0.000222      0.001491


--------------------------------------------------------------------------------------------------------



  FREE ENERGIE OF THE ION-ELECTRON SYSTEM (eV)
  ---------------------------------------------------
  free  energy   TOTEN  =       -19.23897752 eV

  energy  without entropy=      -19.25057333  energy(sigma->0) =      -19.24284279

 d Force = 0.1111215E-01[ 0.109E-01, 0.113E-01]  d Energy = 0.1110897E-01 0.319E-05
 d Force = 0.3831370E+00[ 0.383E+00, 0.384E+00]  d Ewald  = 0.3831367E+00 0.267E-06


--------------------------------------------------------------------------------------------------------


    POTLOK:  cpu time    0.1094: real time    0.1105


--------------------------------------------------------------------------------------------------------


 NEB: the previous image is higher in energy: F
 NEB: the next image is higher in energy    : T
 NEB: only next energy greater

 NEB: Tangent
 ----------------------------------------------
      0.00170      0.00098     -0.57747
      0.00000     -0.00196     -0.57710
     -0.00170      0.00098     -0.57747
      0.00000      0.00000      0.00339

 NEB: forces: par spring, perp REAL, dneb     0.000029    4.261871    0.000000
 NEB: distance to prev, next image, angle between     0.340559    0.340553  179.567786
 NEB: projections on to tangent (spring, REAL)    -0.000029   -1.117782

 stress matrix after NEB project (eV)
      2.32800      0.00000      0.00000
      0.00000      2.27921     -0.00812
      0.00000     -0.00812     -0.50104
  FORCES: max atom, RMS     2.195831    2.130935
  FORCE total and by dimension    4.261871    2.195826
  Stress total and by dimension    3.296292    2.327998
 
 OPT: Flag T
 OPT: LBFGS Step
 OPT: LBFGS start
 OPT: LBFGS, invcurv =    7.9255697933769392E-003
 OPT: LBFGS, bound:            0
 OPT: LBFGS: positions in Cartesian coordinates
      3.83472427      3.98152001      4.19668432
      3.00000000      2.53616722      4.19656635
      2.16527573      3.98152001      4.19668432
      3.00000000      3.50008577      3.98344585
 OPT: LBFGS END subroutine


--------------------------------------------------------------------------------------------------------


    WAVPRE:  cpu time    0.0469: real time    0.0587
    FEWALD:  cpu time    0.0000: real time    0.0008
    ORTHCH:  cpu time    0.0156: real time    0.0028
     LOOP+:  cpu time    1.1250: real time    1.1228


--------------------------------------- Iteration      3(   1)  ---------------------------------------


    POTLOK:  cpu time    0.1250: real time    0.1346
    SETDIJ:  cpu time    0.0000: real time    0.0032
     EDDAV:  cpu time    0.0469: real time    0.0446
       DOS:  cpu time    0.0000: real time    0.0011
    CHARGE:  cpu time    0.0156: real time    0.0102
    MIXING:  cpu time    0.0000: real time    0.0041
    --------------------------------------------
      LOOP:  cpu time    0.1875: real time    0.1978

 eigenvalue-minimisations  :    16
 total energy-change (2. order) :-0.1191299E+00  (-0.1770489E+00)
 number of electron       8.0000046 magnetization 
 augmentation part        0.3249364 magnetization 

 Broyden mixing:
  rms(total) = 0.58138E-01    rms(broyden)= 0.57982E-01
  rms(prec ) = 0.82529E-01
  weight for this iteration     100.00

 Free energy of the ion-electron system (eV)
  ---------------------------------------------------
  alpha Z        PSCENC =         0.68708806
  Ewald energy   TEWEN  =        63.39862779
  -Hartree energ DENC   =      -315.92755686
  -exchange      EXHF   =         0.00000000
  -V(xc)+E(xc)   XCENC  =        29.25982911
  PAW double counting   =       646.84034555     -648.51614808
  entropy T*S    EENTRO =         0.01159581
  eigenvalues    EBANDS =       -97.02278902
  atomic energy  EATOM  =       301.91090041
  Solvation  Ediel_sol  =         0.00000000
  ---------------------------------------------------
  free energy    TOTEN  =       -19.35810724 eV

  energy without entropy =      -19.36970305  energy(sigma->0) =      -19.36197251


--------------------------------------------------------------------------------------------------------




--------------------------------------- Iteration      3(   2)  ---------------------------------------


    POTLOK:  cpu time    0.1094: real time    0.1047
    SETDIJ:  cpu time    0.0000: real time    0.0024
     EDDAV:  cpu time    0.0625: real time    0.0511
       DOS:  cpu time    0.0000: real time    0.0001
    CHARGE:  cpu time    0.0000: real time    0.0143
    MIXING:  cpu time    0.0156: real time    0.0048
    --------------------------------------------
      LOOP:  cpu time    0.1875: real time    0.1774

 eigenvalue-minimisations  :    24
 total energy-change (2. order) : 0.7809524E-02  (-0.4285762E-02)
 number of electron       8.0000046 magnetization 
 augmentation part        0.3284858 magnetization 

 Broyden mixing:
  rms(total) = 0.26977E-01    rms(broyden)= 0.26948E-01
  rms(prec ) = 0.31517E-01
  weight for this iteration     100.00

 eigenvalues of (default mixing * dielectric matrix)
  average eigenvalue GAMMA=   1.0652
  1.0652

 Free energy of the ion-electron system (eV)
  ---------------------------------------------------
  alpha Z        PSCENC =         0.68708806
  Ewald energy   TEWEN  =        63.39862779
  -Hartree energ DENC   =      -314.70040188
  -exchange      EXHF   =         0.00000000
  -V(xc)+E(xc)   XCENC  =        29.19032586
  PAW double counting   =       638.44723689     -640.10440658
  entropy T*S    EENTRO =         0.01159581
  eigenvalues    EBANDS =       -98.19126407
  atomic energy  EATOM  =       301.91090041
  Solvation  Ediel_sol  =         0.00000000
  ---------------------------------------------------
  free energy    TOTEN  =       -19.35029771 eV

  energy without entropy =      -19.36189352  energy(sigma->0) =      -19.35416298


--------------------------------------------------------------------------------------------------------




--------------------------------------- Iteration      3(   3)  ---------------------------------------


    POTLOK:  cpu time    0.1094: real time    0.1212
    SETDIJ:  cpu time    0.0156: real time    0.0037
     EDDAV:  cpu time    0.0469: real time    0.0465
       DOS:  cpu time    0.0000: real time    0.0004
    CHARGE:  cpu time    0.0156: real time    0.0156
    MIXING:  cpu time    0.0000: real time    0.0046
    --------------------------------------------
      LOOP:  cpu time    0.1875: real time    0.1919

 eigenvalue-minimisations  :    16
 total energy-change (2. order) : 0.5361528E-03  (-0.1928333E-03)
 number of electron       8.0000046 magnetization 
 augmentation part        0.3291954 magnetization 

 Broyden mixing:
  rms(total) = 0.16317E-01    rms(broyden)= 0.16312E-01
  rms(prec ) = 0.17728E-01
  weight for this iteration     100.00

 eigenvalues of (default mixing * dielectric matrix)
  average eigenvalue GAMMA=   1.6352
  1.2358  2.0346

 Free energy of the ion-electron system (eV)
  ---------------------------------------------------
  alpha Z        PSCENC =         0.68708806
  Ewald energy   TEWEN  =        63.39862779
  -Hartree energ DENC   =      -314.48589834
  -exchange      EXHF   =         0.00000000
  -V(xc)+E(xc)   XCENC  =        29.17745288
  PAW double counting   =       630.62009496     -632.27022021
  entropy T*S    EENTRO =         0.01159581
  eigenvalues    EBANDS =       -98.39940291
  atomic energy  EATOM  =       301.91090041
  Solvation  Ediel_sol  =         0.00000000
  ---------------------------------------------------
  free energy    TOTEN  =       -19.34976156 eV

  energy without entropy =      -19.36135737  energy(sigma->0) =      -19.35362683


--------------------------------------------------------------------------------------------------------




--------------------------------------- Iteration      3(   4)  ---------------------------------------


    POTLOK:  cpu time    0.1094: real time    0.1109
    SETDIJ:  cpu time    0.0000: real time    0.0025
     EDDAV:  cpu time    0.0625: real time    0.0554
       DOS:  cpu time    0.0000: real time    0.0002
    CHARGE:  cpu time    0.0156: real time    0.0173
    MIXING:  cpu time    0.0000: real time    0.0044
    --------------------------------------------
      LOOP:  cpu time    0.1875: real time    0.1906

 eigenvalue-minimisations  :    24
 total energy-change (2. order) : 0.2041282E-04  (-0.5392293E-04)
 number of electron       8.0000046 magnetization 
 augmentation part        0.3290207 magnetization 

 Broyden mixing:
  rms(total) = 0.34216E-02    rms(broyden)= 0.34214E-02
  rms(prec ) = 0.39077E-02
  weight for this iteration     100.00

 eigenvalues of (default mixing * dielectric matrix)
  average eigenvalue GAMMA=   1.5835
  2.5292  1.1106  1.1106

 Free energy of the ion-electron system (eV)
  ---------------------------------------------------
  alpha Z        PSCENC =         0.68708806
  Ewald energy   TEWEN  =        63.39862779
  -Hartree energ DENC   =      -314.49277856
  -exchange      EXHF   =         0.00000000
  -V(xc)+E(xc)   XCENC  =        29.17670433
  PAW double counting   =       622.09381346     -623.73930774
  entropy T*S    EENTRO =         0.01159581
  eigenvalues    EBANDS =       -98.39638470
  atomic energy  EATOM  =       301.91090041
  Solvation  Ediel_sol  =         0.00000000
  ---------------------------------------------------
  free energy    TOTEN  =       -19.34974115 eV

  energy without entropy =      -19.36133696  energy(sigma->0) =      -19.35360642


--------------------------------------------------------------------------------------------------------




--------------------------------------- Iteration      3(   5)  ---------------------------------------


    POTLOK:  cpu time    0.1250: real time    0.1265
    SETDIJ:  cpu time    0.0000: real time    0.0035
     EDDAV:  cpu time    0.0469: real time    0.0380
       DOS:  cpu time    0.0000: real time    0.0003
    CHARGE:  cpu time    0.0156: real time    0.0113
    MIXING:  cpu time    0.0000: real time    0.0050
    --------------------------------------------
      LOOP:  cpu time    0.1875: real time    0.1847

 eigenvalue-minimisations  :    16
 total energy-change (2. order) :-0.1926421E-04  (-0.8881873E-05)
 number of electron       8.0000046 magnetization 
 augmentation part        0.3292271 magnetization 

 Broyden mixing:
  rms(total) = 0.11135E-02    rms(broyden)= 0.11119E-02
  rms(prec ) = 0.15615E-02
  weight for this iteration     100.00

 eigenvalues of (default mixing * dielectric matrix)
  average eigenvalue GAMMA=   1.4914
  2.3163  1.6263  1.1956  0.8274

 Free energy of the ion-electron system (eV)
  ---------------------------------------------------
  alpha Z        PSCENC =         0.68708806
  Ewald energy   TEWEN  =        63.39862779
  -Hartree energ DENC   =      -314.44870927
  -exchange      EXHF   =         0.00000000
  -V(xc)+E(xc)   XCENC  =        29.17420137
  PAW double counting   =       619.92267730     -621.56658401
  entropy T*S    EENTRO =         0.01159581
  eigenvalues    EBANDS =       -98.43955786
  atomic energy  EATOM  =       301.91090041
  Solvation  Ediel_sol  =         0.00000000
  ---------------------------------------------------
  free energy    TOTEN  =       -19.34976041 eV

  energy without entropy =      -19.36135622  energy(sigma->0) =      -19.35362568


--------------------------------------------------------------------------------------------------------




--------------------------------------- Iteration      3(   6)  ---------------------------------------


    POTLOK:  cpu time    0.1250: real time    0.1318
    SETDIJ:  cpu time    0.0156: real time    0.0032
     EDDAV:  cpu time    0.0469: real time    0.0507
       DOS:  cpu time    0.0000: real time    0.0002
    CHARGE:  cpu time    0.0156: real time    0.0115
    MIXING:  cpu time    0.0000: real time    0.0049
    --------------------------------------------
      LOOP:  cpu time    0.2031: real time    0.2022

 eigenvalue-minimisations  :    16
 total energy-change (2. order) :-0.1122645E-04  (-0.6824475E-06)
 number of electron       8.0000046 magnetization 
 augmentation part        0.3292301 magnetization 

 Broyden mixing:
  rms(total) = 0.50680E-03    rms(broyden)= 0.50648E-03
  rms(prec ) = 0.82219E-03
  weight for this iteration     100.00

 eigenvalues of (default mixing * dielectric matrix)
  average eigenvalue GAMMA=   1.5302
  2.5809  1.8436  1.0211  1.0211  1.1844

 Free energy of the ion-electron system (eV)
  ---------------------------------------------------
  alpha Z        PSCENC =         0.68708806
  Ewald energy   TEWEN  =        63.39862779
  -Hartree energ DENC   =      -314.45155637
  -exchange      EXHF   =         0.00000000
  -V(xc)+E(xc)   XCENC  =        29.17447319
  PAW double counting   =       620.05413468     -621.69823895
  entropy T*S    EENTRO =         0.01159581
  eigenvalues    EBANDS =       -98.43679626
  atomic energy  EATOM  =       301.91090041
  Solvation  Ediel_sol  =         0.00000000
  ---------------------------------------------------
  free energy    TOTEN  =       -19.34977164 eV

  energy without entropy =      -19.36136745  energy(sigma->0) =      -19.35363691


--------------------------------------------------------------------------------------------------------




--------------------------------------- Iteration      3(   7)  ---------------------------------------


    POTLOK:  cpu time    0.1094: real time    0.1067
    SETDIJ:  cpu time    0.0000: real time    0.0038
     EDDAV:  cpu time    0.0312: real time    0.0423
       DOS:  cpu time    0.0156: real time    0.0001
    CHARGE:  cpu time    0.0000: real time    0.0109
    MIXING:  cpu time    0.0156: real time    0.0046
    --------------------------------------------
      LOOP:  cpu time    0.1719: real time    0.1685

 eigenvalue-minimisations  :    16
 total energy-change (2. order) :-0.1597828E-04  (-0.3851762E-06)
 number of electron       8.0000046 magnetization 
 augmentation part        0.3291972 magnetization 

 Broyden mixing:
  rms(total) = 0.24730E-03    rms(broyden)= 0.24726E-03
  rms(prec ) = 0.43368E-03
  weight for this iteration     100.00

 eigenvalues of (default mixing * dielectric matrix)
  average eigenvalue GAMMA=   1.5780
  2.5227  2.1475  1.7403  0.9689  0.9689  1.1198

 Free energy of the ion-electron system (eV)
  ---------------------------------------------------
  alpha Z        PSCENC =         0.68708806
  Ewald energy   TEWEN  =        63.39862779
  -Hartree energ DENC   =      -314.45645690
  -exchange      EXHF   =         0.00000000
  -V(xc)+E(xc)   XCENC  =        29.17479624
  PAW double counting   =       619.80176828     -621.44587304
  entropy T*S    EENTRO =         0.01159581
  eigenvalues    EBANDS =       -98.43223427
  atomic energy  EATOM  =       301.91090041
  Solvation  Ediel_sol  =         0.00000000
  ---------------------------------------------------
  free energy    TOTEN  =       -19.34978762 eV

  energy without entropy =      -19.36138343  energy(sigma->0) =      -19.35365289


--------------------------------------------------------------------------------------------------------




[...]
  entropy T*S    EENTRO =         0.01159581
  eigenvalues    EBANDS =       -97.13256077
  atomic energy  EATOM  =       301.91090041
  Solvation  Ediel_sol  =         0.00000000
  ---------------------------------------------------
  free energy    TOTEN  =       -19.49150972 eV

  energy without entropy =      -19.50310553  energy(sigma->0) =      -19.49537499


--------------------------------------------------------------------------------------------------------




--------------------------------------- Iteration     21(   6)  ---------------------------------------


    POTLOK:  cpu time    0.1094: real time    0.1197
    SETDIJ:  cpu time    0.0000: real time    0.0042
     EDDAV:  cpu time    0.0625: real time    0.0489
       DOS:  cpu time    0.0000: real time    0.0002
    CHARGE:  cpu time    0.0000: real time    0.0143
    MIXING:  cpu time    0.0156: real time    0.0039
    --------------------------------------------
      LOOP:  cpu time    0.1875: real time    0.1913

 eigenvalue-minimisations  :    24
 total energy-change (2. order) :-0.2182191E-05  (-0.2658771E-06)
 number of electron       8.0000053 magnetization 
 augmentation part        0.2988017 magnetization 

 Broyden mixing:
  rms(total) = 0.27407E-03    rms(broyden)= 0.27401E-03
  rms(prec ) = 0.52901E-03
  weight for this iteration     100.00

 eigenvalues of (default mixing * dielectric matrix)
  average eigenvalue GAMMA=   1.6355
  2.6511  0.9651  0.9651  1.7980  1.7980

 Free energy of the ion-electron system (eV)
  ---------------------------------------------------
  alpha Z        PSCENC =         0.68708806
  Ewald energy   TEWEN  =        56.02381782
  -Hartree energ DENC   =      -308.29352601
  -exchange      EXHF   =         0.00000000
  -V(xc)+E(xc)   XCENC  =        28.84724664
  PAW double counting   =       570.67424468     -572.22507241
  entropy T*S    EENTRO =         0.01159581
  eigenvalues    EBANDS =       -97.12780691
  atomic energy  EATOM  =       301.91090041
  Solvation  Ediel_sol  =         0.00000000
  ---------------------------------------------------
  free energy    TOTEN  =       -19.49151190 eV

  energy without entropy =      -19.50310771  energy(sigma->0) =      -19.49537717


--------------------------------------------------------------------------------------------------------




--------------------------------------- Iteration     21(   7)  ---------------------------------------


    POTLOK:  cpu time    0.1094: real time    0.1194
    SETDIJ:  cpu time    0.0156: real time    0.0032
     EDDAV:  cpu time    0.0312: real time    0.0390
       DOS:  cpu time    0.0000: real time    0.0002
    CHARGE:  cpu time    0.0156: real time    0.0136
    MIXING:  cpu time    0.0000: real time    0.0050
    --------------------------------------------
      LOOP:  cpu time    0.1719: real time    0.1804

 eigenvalue-minimisations  :    16
 total energy-change (2. order) :-0.1143959E-04  (-0.1519163E-06)
 number of electron       8.0000053 magnetization 
 augmentation part        0.2987925 magnetization 

 Broyden mixing:
  rms(total) = 0.12246E-03    rms(broyden)= 0.12243E-03
  rms(prec ) = 0.25777E-03
  weight for this iteration     100.00

 eigenvalues of (default mixing * dielectric matrix)
  average eigenvalue GAMMA=   1.4685
  2.5355  1.8072  1.8072  0.9519  0.9519  0.7573

 Free energy of the ion-electron system (eV)
  ---------------------------------------------------
  alpha Z        PSCENC =         0.68708806
  Ewald energy   TEWEN  =        56.02381782
  -Hartree energ DENC   =      -308.29227763
  -exchange      EXHF   =         0.00000000
  -V(xc)+E(xc)   XCENC  =        28.84717703
  PAW double counting   =       570.66338962     -572.21429276
  entropy T*S    EENTRO =         0.01159581
  eigenvalues    EBANDS =       -97.12892170
  atomic energy  EATOM  =       301.91090041
  Solvation  Ediel_sol  =         0.00000000
  ---------------------------------------------------
  free energy    TOTEN  =       -19.49152334 eV

  energy without entropy =      -19.50311915  energy(sigma->0) =      -19.49538861


--------------------------------------------------------------------------------------------------------




--------------------------------------- Iteration     21(   8)  ---------------------------------------


    POTLOK:  cpu time    0.1406: real time    0.1340
    SETDIJ:  cpu time    0.0000: real time    0.0044
     EDDAV:  cpu time    0.0625: real time    0.0519
       DOS:  cpu time    0.0000: real time    0.0002
    CHARGE:  cpu time    0.0156: real time    0.0160
    MIXING:  cpu time    0.0000: real time    0.0064
    --------------------------------------------
      LOOP:  cpu time    0.2188: real time    0.2129

 eigenvalue-minimisations  :    24
 total energy-change (2. order) :-0.4751977E-05  (-0.3827780E-07)
 number of electron       8.0000053 magnetization 
 augmentation part        0.2988001 magnetization 

 Broyden mixing:
  rms(total) = 0.77257E-04    rms(broyden)= 0.77253E-04
  rms(prec ) = 0.19813E-03
  weight for this iteration     100.00

 eigenvalues of (default mixing * dielectric matrix)
  average eigenvalue GAMMA=   1.7756
  3.7926  2.5057  1.5669  1.5669  1.0445  1.0445  0.9084

 Free energy of the ion-electron system (eV)
  ---------------------------------------------------
  alpha Z        PSCENC =         0.68708806
  Ewald energy   TEWEN  =        56.02381782
  -Hartree energ DENC   =      -308.28960967
  -exchange      EXHF   =         0.00000000
  -V(xc)+E(xc)   XCENC  =        28.84704582
  PAW double counting   =       570.68347538     -572.23437553
  entropy T*S    EENTRO =         0.01159581
  eigenvalues    EBANDS =       -97.13146619
  atomic energy  EATOM  =       301.91090041
  Solvation  Ediel_sol  =         0.00000000
  ---------------------------------------------------
  free energy    TOTEN  =       -19.49152809 eV

  energy without entropy =      -19.50312390  energy(sigma->0) =      -19.49539336


--------------------------------------------------------------------------------------------------------




--------------------------------------- Iteration     21(   9)  ---------------------------------------


    POTLOK:  cpu time    0.1406: real time    0.1417
    SETDIJ:  cpu time    0.0000: real time    0.0038
     EDDAV:  cpu time    0.0469: real time    0.0436
       DOS:  cpu time    0.0000: real time    0.0002
    CHARGE:  cpu time    0.0156: real time    0.0124
    MIXING:  cpu time    0.0000: real time    0.0049
    --------------------------------------------
      LOOP:  cpu time    0.2031: real time    0.2065

 eigenvalue-minimisations  :    16
 total energy-change (2. order) :-0.6969658E-05  (-0.1420402E-06)
 number of electron       8.0000053 magnetization 
 augmentation part        0.2987961 magnetization 

 Broyden mixing:
  rms(total) = 0.41444E-04    rms(broyden)= 0.41438E-04
  rms(prec ) = 0.68114E-04
  weight for this iteration     100.00

 eigenvalues of (default mixing * dielectric matrix)
  average eigenvalue GAMMA=   1.7901
  4.0595  2.5484  1.7882  1.7882  1.0765  1.0765  0.9447  1.0385

 Free energy of the ion-electron system (eV)
  ---------------------------------------------------
  alpha Z        PSCENC =         0.68708806
  Ewald energy   TEWEN  =        56.02381782
  -Hartree energ DENC   =      -308.28834946
  -exchange      EXHF   =         0.00000000
  -V(xc)+E(xc)   XCENC  =        28.84698757
  PAW double counting   =       570.71018501     -572.26111860
  entropy T*S    EENTRO =         0.01159581
  eigenvalues    EBANDS =       -97.13264168
  atomic energy  EATOM  =       301.91090041
  Solvation  Ediel_sol  =         0.00000000
  ---------------------------------------------------
  free energy    TOTEN  =       -19.49153506 eV

  energy without entropy =      -19.50313087  energy(sigma->0) =      -19.49540033


--------------------------------------------------------------------------------------------------------




--------------------------------------- Iteration     21(  10)  ---------------------------------------


    POTLOK:  cpu time    0.1250: real time    0.1239
    SETDIJ:  cpu time    0.0000: real time    0.0037
     EDDAV:  cpu time    0.0625: real time    0.0594
       DOS:  cpu time    0.0000: real time    0.0002
    CHARGE:  cpu time    0.0156: real time    0.0152
    MIXING:  cpu time    0.0156: real time    0.0061
    --------------------------------------------
      LOOP:  cpu time    0.2188: real time    0.2086

 eigenvalue-minimisations  :    24
 total energy-change (2. order) :-0.1190533E-05  (-0.1636194E-07)
 number of electron       8.0000053 magnetization 
 augmentation part        0.2987937 magnetization 

 Broyden mixing:
  rms(total) = 0.15757E-04    rms(broyden)= 0.15738E-04
  rms(prec ) = 0.28290E-04
  weight for this iteration     100.00

 eigenvalues of (default mixing * dielectric matrix)
  average eigenvalue GAMMA=   1.9758
  5.7632  2.5498  2.3371  1.7985  1.3069  1.0861  1.0861  0.9272  0.9272

 Free energy of the ion-electron system (eV)
  ---------------------------------------------------
  alpha Z        PSCENC =         0.68708806
  Ewald energy   TEWEN  =        56.02381782
  -Hartree energ DENC   =      -308.28899231
  -exchange      EXHF   =         0.00000000
  -V(xc)+E(xc)   XCENC  =        28.84701702
  PAW double counting   =       570.70533187     -572.25625728
  entropy T*S    EENTRO =         0.01159581
  eigenvalues    EBANDS =       -97.13203765
  atomic energy  EATOM  =       301.91090041
  Solvation  Ediel_sol  =         0.00000000
  ---------------------------------------------------
  free energy    TOTEN  =       -19.49153625 eV

  energy without entropy =      -19.50313206  energy(sigma->0) =      -19.49540152


--------------------------------------------------------------------------------------------------------




--------------------------------------- Iteration     21(  11)  ---------------------------------------


    POTLOK:  cpu time    0.1250: real time    0.1349
    SETDIJ:  cpu time    0.0000: real time    0.0038
     EDDAV:  cpu time    0.0469: real time    0.0436
       DOS:  cpu time    0.0000: real time    0.0002
    --------------------------------------------
      LOOP:  cpu time    0.1719: real time    0.1825

 eigenvalue-minimisations  :    16
 total energy-change (2. order) :-0.2596416E-06  (-0.3217258E-08)
 number of electron       8.0000053 magnetization 
 augmentation part        0.2987937 magnetization 

 Free energy of the ion-electron system (eV)
  ---------------------------------------------------
  alpha Z        PSCENC =         0.68708806
  Ewald energy   TEWEN  =        56.02381782
  -Hartree energ DENC   =      -308.28895924
  -exchange      EXHF   =         0.00000000
  -V(xc)+E(xc)   XCENC  =        28.84701222
  PAW double counting   =       570.70328039     -572.25420108
  entropy T*S    EENTRO =         0.01159581
  eigenvalues    EBANDS =       -97.13207090
  atomic energy  EATOM  =       301.91090041
  Solvation  Ediel_sol  =         0.00000000
  ---------------------------------------------------
  free energy    TOTEN  =       -19.49153651 eV

  energy without entropy =      -19.50313232  energy(sigma->0) =      -19.49540178


--------------------------------------------------------------------------------------------------------




 average (electrostatic) potential at core
  the test charge radii are     0.5201  0.7089
  (the norm of the test charge is              1.0000)
       1 -42.9106       2 -42.9095       3 -42.9106       4 -72.5456



 E-fermi :  -5.6921     XC(G=0):  -1.6781     alpha+bet : -0.5051


 k-point     1 :       0.0000    0.0000    0.0000
  band No.  band energies     occupation 
      1     -20.8354      2.00000
      2     -10.9376      2.00000
      3     -10.9327      2.00000
      4      -5.8604      2.00000
      5      -1.1378     -0.00000
      6       1.4614      0.00000
      7       1.6385      0.00000
      8       1.7645      0.00000


--------------------------------------------------------------------------------------------------------


 soft charge-density along one line, spin component           1
         0         1         2         3         4         5         6         7         8         9
 total charge-density along one line

 pseudopotential strength for first ion, spin component:           1
 -2.360  -4.070   0.001   0.001   0.002
 -4.070  -6.934   0.003   0.002   0.006
  0.001   0.003  -0.330   0.001   0.003
  0.001   0.002   0.001  -0.331   0.002
  0.002   0.006   0.003   0.002  -0.327
 total augmentation occupancy for first ion, spin component:           1
  3.852  -0.774  -0.269  -0.211  -0.468
 -0.774   0.181   0.055   0.046   0.095
 -0.269   0.055   0.030   0.011   0.028
 -0.211   0.046   0.011   0.036   0.019
 -0.468   0.095   0.028   0.019   0.062


------------------------ aborting loop because EDIFF is reached ----------------------------------------


    CHARGE:  cpu time    0.0156: real time    0.0166
    FORLOC:  cpu time    0.0156: real time    0.0160
    FORNL :  cpu time    0.0156: real time    0.0085
    STRESS:  cpu time    0.0625: real time    0.0550
    FORCOR:  cpu time    0.1250: real time    0.1225
    FORHAR:  cpu time    0.0312: real time    0.0435
    MIXING:  cpu time    0.0156: real time    0.0064
    OFIELD:  cpu time    0.0000: real time    0.0000

  FORCE on cell =-STRESS in cart. coord.  units (eV):
  Direction    XX          YY          ZZ          XY          YZ          ZX
  --------------------------------------------------------------------------------------
  Alpha Z     0.68709     0.68709     0.68709
  Ewald      71.81869    43.42590   -59.22080     0.00000     0.17698    -0.00000
  Hartree   133.93482   107.49966    66.85466    -0.00000     0.05297    -0.00000
  E(xc)     -30.75862   -30.75935   -31.01215     0.00000     0.00039    -0.00000
  Local    -275.28999  -220.45009   -98.14302     0.00000    -0.18432     0.00000
  n-local   -21.84179   -21.82304   -23.82460    -0.00000     0.00561    -0.00000
  augment     1.18791     1.18707     1.77392     0.00000    -0.00177     0.00000
  Kinetic   119.60944   119.50847   142.08695     0.00000    -0.05914     0.00000
  Fock        0.00000     0.00000     0.00000     0.00000     0.00000     0.00000
  -------------------------------------------------------------------------------------
  Total      -0.65245    -0.72429    -0.79795     0.00000    -0.00929     0.00000
  in kB      -3.11114    -3.45369    -3.80494     0.00000    -0.04428     0.00000
  external pressure =       -3.46 kB  Pullay stress =        0.00 kB


 VOLUME and BASIS-vectors are now :
 -----------------------------------------------------------------------------
  energy-cutoff  :      400.00
  volume of cell :      336.00
      direct lattice vectors                 reciprocal lattice vectors
     6.000000000  0.000000000  0.000000000     0.166666667  0.000000000  0.000000000
     0.000000000  7.000000000  0.000000000     0.000000000  0.142857143  0.000000000
     0.000000000  0.000000000  8.000000000     0.000000000  0.000000000  0.125000000

  length of vectors
     6.000000000  7.000000000  8.000000000     0.166666667  0.142857143  0.125000000


 FORCES acting on ions
    electron-ion (+dipol)            ewald-force                    non-local-force                 convergence-correction
 -----------------------------------------------------------------------------------------------
   -.553E+02 -.325E+02 -.235E+02   0.610E+02 0.358E+02 0.260E+02   -.574E+01 -.331E+01 -.248E+01   0.121E-04 0.560E-05 -.122E-04
   0.159E-13 0.650E+02 -.233E+02   -.105E-15 -.716E+02 0.258E+02   0.000E+00 0.663E+01 -.246E+01   0.950E-15 -.135E-04 -.147E-04
   0.553E+02 -.325E+02 -.235E+02   -.610E+02 0.358E+02 0.260E+02   0.574E+01 -.331E+01 -.248E+01   -.121E-04 0.560E-05 -.122E-04
   0.967E-13 0.217E-01 0.485E+02   0.143E-13 0.245E-01 -.777E+02   0.000E+00 -.388E-01 0.292E+02   0.150E-13 -.458E-04 -.320E-03
 -----------------------------------------------------------------------------------------------
   -.596E-13 0.229E-01 -.218E+02   0.951E-16 -.520E-16 0.000E+00   0.000E+00 -.227E-01 0.218E+02   0.161E-13 -.481E-04 -.359E-03


 POSITION                                       TOTAL-FORCE (eV/Angst)
 -----------------------------------------------------------------------------------
      3.82045      3.97324      4.19448        -0.013203     -0.007213      0.010506
      3.00000      2.55233      4.19178         0.000000      0.007115      0.014943
      2.17955      3.97324      4.19448         0.013203     -0.007213      0.010506
      3.00000      3.50048      3.80654         0.000000      0.007310     -0.035956
 -----------------------------------------------------------------------------------
    total drift:                               -0.000000      0.000141      0.000282


--------------------------------------------------------------------------------------------------------



  FREE ENERGIE OF THE ION-ELECTRON SYSTEM (eV)
  ---------------------------------------------------
  free  energy   TOTEN  =       -19.49153651 eV

  energy  without entropy=      -19.50313232  energy(sigma->0) =      -19.49540178

 d Force = 0.1554842E-02[ 0.612E-03, 0.250E-02]  d Energy = 0.1574546E-02-0.197E-04
 d Force = 0.2657511E+00[ 0.284E+00, 0.247E+00]  d Ewald  = 0.2657975E+00-0.464E-04


--------------------------------------------------------------------------------------------------------


    POTLOK:  cpu time    0.1406: real time    0.1504


--------------------------------------------------------------------------------------------------------


 NEB: the previous image is higher in energy: F
 NEB: the next image is higher in energy    : T
 NEB: only next energy greater

 NEB: Tangent
 ----------------------------------------------
      0.12573      0.07227     -0.48641
      0.00000     -0.14363     -0.47966
     -0.12573      0.07227     -0.48641
      0.00000     -0.00091      0.48378

 NEB: forces: par spring, perp REAL, dneb     0.018491    0.026070    0.000000
 NEB: distance to prev, next image, angle between     0.396273    0.399971  119.873998
 NEB: projections on to tangent (spring, REAL)     0.018491   -0.040175

 stress matrix after NEB project (eV)
     -0.65245      0.00000      0.00000
      0.00000     -0.72429     -0.00929
      0.00000     -0.00929     -0.79795
  FORCES: max atom, RMS     0.019179    0.015981
  FORCE total and by dimension    0.031962    0.018029
  Stress total and by dimension    1.259835    0.797951
 OPT: skip step - force has converged


--------------------------------------------------------------------------------------------------------


  
 reached required accuracy - stopping structural energy minimisation
 writing wavefunctions
     LOOP+:  cpu time    3.0312: real time    3.0333
    4ORBIT:  cpu time    0.0000: real time    0.0000

 total amount of memory used by VASP MPI-rank0    49277. kBytes
=======================================================================

   base      :      30000. kBytes
   nonl-proj :       1166. kBytes
   fftplans  :       6115. kBytes
   grid      :      11594. kBytes
   one-center:         12. kBytes
   wavefun   :        390. kBytes

  
  
 General timing and accounting informations for this job:
 ========================================================
  
                  Total CPU time used (sec):       52.062
                            User time (sec):       47.484
                          System time (sec):        4.578
                         Elapsed time (sec):       52.507
  
                   Maximum memory used (kb):       54308.
                   Average memory used (kb):           0.
  
                          Minor page faults:       870483
                          Major page faults:            0
                 Voluntary context switches:            0
