 vasp.5.4.4.18Apr17-6-g9f103f2a35 (build Mar 30 2021 17:29:28) complex           
 executed on             LinuxGNU date 2021.03.31  09:32:59
 running on    6 total cores
 each image running on    2 cores
 distrk:  each k-point on    2 cores,    1 groups
 distr:  one band on NCORES_PER_BAND=   1 cores,    2 groups


--------------------------------------------------------------------------------------------------------


 INCAR:
 POTCAR:    PAW_PBE H 15Jun2001                   
 POTCAR:    PAW_PBE N 08Apr2002                   
 POTCAR:    PAW_PBE H 15Jun2001                   
   VRHFIN =H: ultrasoft test                                                    
   LEXCH  = PE                                                                  
   EATOM  =    12.4884 eV,    0.9179 Ry                                         
                                                                                
   TITEL  = PAW_PBE H 15Jun2001                                                 
   LULTRA =        F    use ultrasoft PP ?                                      
   IUNSCR =        0    unscreen: 0-lin 1-nonlin 2-no                           
   RPACOR =    0.000    partial core radius                                     
   POMASS =    1.000; ZVAL   =    1.000    mass and valenz                      
   RCORE  =    1.100    outmost cutoff radius                                   
   RWIGS  =    0.700; RWIGS  =    0.370    wigner-seitz radius (au A)           
   ENMAX  =  250.000; ENMIN  =  200.000 eV                                      
   RCLOC  =    0.701    cutoff for local pot                                    
   LCOR   =        T    correct aug charges                                     
   LPAW   =        T    paw PP                                                  
   EAUG   =  400.000                                                            
   RMAX   =    1.123    core radius for proj-oper                               
   RAUG   =    1.200    factor for augmentation sphere                          
   RDEP   =    1.112    radius for radial grids                                 
   RDEPT  =    0.926    core radius for aug-charge                              
                                                                                
   Atomic configuration                                                         
    2 entries                                                                   
     n  l   j            E        occ.                                          
     1  0  0.50        -6.4927   1.0000                                         
     2  1  0.50        -3.4015   0.0000                                         
   Description                                                                  
     l       E           TYP  RCUT    TYP  RCUT                                 
     0     -6.4927494     23  1.100                                             
     0      6.8029130     23  1.100                                             
     1     -4.0817478     23  1.100                                             
  local pseudopotential read in
  atomic valenz-charges read in
  non local Contribution for L=           0  read in
    real space projection operators read in
  non local Contribution for L=           0  read in
    real space projection operators read in
  non local Contribution for L=           1  read in
    real space projection operators read in
    PAW grid and wavefunctions read in

   number of l-projection  operators is LMAX  =           3
   number of lm-projection operators is LMMAX =           5

 POTCAR:    PAW_PBE N 08Apr2002                   
   VRHFIN =N: s2p3                                                              
   LEXCH  = PE                                                                  
   EATOM  =   264.5486 eV,   19.4438 Ry                                         
                                                                                
   TITEL  = PAW_PBE N 08Apr2002                                                 
   LULTRA =        F    use ultrasoft PP ?                                      
   IUNSCR =        1    unscreen: 0-lin 1-nonlin 2-no                           
   RPACOR =    1.200    partial core radius                                     
   POMASS =   14.001; ZVAL   =    5.000    mass and valenz                      
   RCORE  =    1.500    outmost cutoff radius                                   
   RWIGS  =    1.400; RWIGS  =    0.741    wigner-seitz radius (au A)           
   ENMAX  =  400.000; ENMIN  =  300.000 eV                                      
   ICORE  =        2    local potential                                         
   LCOR   =        T    correct aug charges                                     
   LPAW   =        T    paw PP                                                  
   EAUG   =  627.112                                                            
   DEXC   =    0.000                                                            
   RMAX   =    1.529    core radius for proj-oper                               
   RAUG   =    1.300    factor for augmentation sphere                          
   RDEP   =    1.514    radius for radial grids                                 
   RDEPT  =    1.338    core radius for aug-charge                              
                                                                                
   Atomic configuration                                                         
    4 entries                                                                   
     n  l   j            E        occ.                                          
     1  0  0.50      -384.7179   2.0000                                         
     2  0  0.50       -18.5828   2.0000                                         
     2  1  0.50        -7.0898   3.0000                                         
     3  2  1.50        -6.8029   0.0000                                         
   Description                                                                  
     l       E           TYP  RCUT    TYP  RCUT                                 
     0    -18.5828119     23  1.200                                             
     0    -13.5018863     23  1.200                                             
     1     -7.0897853     23  1.500                                             
     1      9.5240782     23  1.500                                             
     2     -6.8029130      7  1.500                                             
  local pseudopotential read in
  partial core-charges read in
  partial kinetic energy density read in
  atomic valenz-charges read in
  non local Contribution for L=           0  read in
    real space projection operators read in
  non local Contribution for L=           0  read in
    real space projection operators read in
  non local Contribution for L=           1  read in
    real space projection operators read in
  non local Contribution for L=           1  read in
    real space projection operators read in
    PAW grid and wavefunctions read in

   number of l-projection  operators is LMAX  =           4
   number of lm-projection operators is LMMAX =           8

  PAW_PBE H 15Jun2001                   :
 energy of atom  1       EATOM=  -12.4884
 kinetic energy error for atom=    0.0098 (will be added to EATOM!!)
  PAW_PBE N 08Apr2002                   :
 energy of atom  2       EATOM= -264.5486
 kinetic energy error for atom=    0.0736 (will be added to EATOM!!)


 POSCAR: # Compound: H3N. Old comment: H3N       
  positions in direct lattice
  No initial velocities read in
 exchange correlation table for  LEXCH =        8
   RHO(1)=    0.500       N(1)  =     2000
   RHO(2)=  100.500       N(2)  =     4000

 VTST: version 3.2, (02/03/18)

 CHAIN: initializing optimizer
 
 OPT: Using LBFGS optimizer
 OPT: LBFGS, Init
 OPT: LBFGS, MEMORY             20
 OPT: LBFGS, IMAGES              3
 OPT: LBFGS, MAXMOVE      0.200000
 OPT: LBFGS, LGLOBAL      T
 OPT: LBFGS, INVCURV      0.010000
 OPT: LBFGS, LLINEOPT      F
 OPT: LBFGS, FDSTEP       0.005000
 OPT: LBFGS, LAUTOSCALE      T
 OPT: LBFGS, DAMPING      2.000000
 
 CHAIN: Read ICHAIN            0
 CHAIN: Running the NEB
 NEB:          SPRING     -5.000000
 NEB:          LCLIMB      T
 NEB:     LTANGENTOLD      F
 NEB:           LDNEB      F
 NEB:        LDNEBORG      F
 NEB:        LNEBCELL      F
 NEB:          EFIRST      0.000000
 NEB:           ELAST      0.000000

 POSCAR: # Compound: H3N. Old comment: H3N       
  positions in direct lattice
  No initial velocities read in

 POSCAR: # Compound: H3N. Old comment: H3N       
  positions in direct lattice
  No initial velocities read in



--------------------------------------------------------------------------------------------------------


 ion  position               nearest neighbor table
   1  0.636  0.567  0.500-   4 0.95
   2  0.500  0.365  0.500-   4 0.95
   3  0.364  0.567  0.500-   4 0.95
   4  0.500  0.500  0.500-   1 0.95   3 0.95   2 0.95

  LATTYP: Found a simple orthorhombic cell.
 ALAT       =     6.0000000000
 B/A-ratio  =     1.1666666667
 C/A-ratio  =     1.3333333333
  
  Lattice vectors:
  
 A1 = (   6.0000000000,   0.0000000000,   0.0000000000)
 A2 = (   0.0000000000,   7.0000000000,   0.0000000000)
 A3 = (   0.0000000000,   0.0000000000,   8.0000000000)


Analysis of symmetry for initial positions (statically):
=====================================================================
 Subroutine PRICEL returns:
 Original cell was already a primitive cell.
 

 Routine SETGRP: Setting up the symmetry group for a 
 simple orthorhombic supercell.


 Subroutine GETGRP returns: Found  4 space group operations
 (whereof  4 operations were pure point group operations)
 out of a pool of  8 trial point group operations.


The static configuration has the point symmetry C_2v.


Analysis of symmetry for dynamics (positions and initial velocities):
=====================================================================
 Subroutine PRICEL returns:
 Original cell was already a primitive cell.
 

 Routine SETGRP: Setting up the symmetry group for a 
 simple orthorhombic supercell.


 Subroutine GETGRP returns: Found  4 space group operations
 (whereof  4 operations were pure point group operations)
 out of a pool of  8 trial point group operations.


The dynamic configuration has the point symmetry C_2v.


 Subroutine INISYM returns: Found  4 space group operations
 (whereof  4 operations are pure point group operations),
 and found     1 'primitive' translations



 KPOINTS: # No comment                            

Automatic generation of k-mesh.
Space group operators:
 irot       det(A)        alpha          n_x          n_y          n_z        tau_x        tau_y        tau_z
    1     1.000000     0.000000     1.000000     0.000000     0.000000     0.000000     0.000000     0.000000
    2    -1.000000   180.000000     0.000000     0.000000     1.000000     0.000000     0.000000     0.000000
    3     1.000000   180.000000     0.000000     1.000000     0.000000     0.000000     0.000000     0.000000
    4    -1.000000   180.000000     1.000000     0.000000     0.000000     0.000000     0.000000     0.000000
 
 Subroutine IBZKPT returns following result:
 ===========================================
 
 Found      1 irreducible k-points:
 
 Following reciprocal coordinates:
            Coordinates               Weight
  0.000000  0.000000  0.000000      1.000000
 
 Following cartesian coordinates:
            Coordinates               Weight
  0.000000  0.000000  0.000000      1.000000
 


--------------------------------------------------------------------------------------------------------




 Dimension of arrays:
   k-points           NKPTS =      1   k-points in BZ     NKDIM =      1   number of bands    NBANDS=      8
   number of dos      NEDOS =    301   number of ions     NIONS =      4
   non local maximal  LDIM  =      4   non local SUM 2l+1 LMDIM =      8
   total plane-waves  NPLWV =  43200
   max r-space proj   IRMAX =      1   max aug-charges    IRDMAX=   1781
   dimension x,y,z NGX =    30 NGY =   36 NGZ =   40
   dimension x,y,z NGXF=    60 NGYF=   72 NGZF=   80
   support grid    NGXF=    60 NGYF=   72 NGZF=   80
   ions per type =               3   1
   NGX,Y,Z   is equivalent  to a cutoff of   8.31,  8.55,  8.31 a.u.
   NGXF,Y,Z  is equivalent  to a cutoff of  16.62, 17.10, 16.62 a.u.

 SYSTEM =  unknown system                          
 POSCAR =  # Compound: H3N. Old comment: H3N       

 Startparameter for this run:
   NWRITE =      2    write-flag & timer
   PREC   = normal    normal or accurate (medium, high low for compatibility)
   ISTART =      1    job   : 0-new  1-cont  2-samecut
   ICHARG =      0    charge: 1-file 2-atom 10-const
   ISPIN  =      1    spin polarized calculation?
   LNONCOLLINEAR =      F non collinear calculations
   LSORBIT =      F    spin-orbit coupling
   INIWAV =      1    electr: 0-lowe 1-rand  2-diag
   LASPH  =      F    aspherical Exc in radial PAW
   METAGGA=      F    non-selfconsistent MetaGGA calc.

 Electronic Relaxation 1
   ENCUT  =  400.0 eV  29.40 Ry    5.42 a.u.   9.78 11.42 13.05*2*pi/ulx,y,z
   ENINI  =  400.0     initial cutoff
   ENAUG  =  627.1 eV  augmentation charge cutoff
   NELM   =     60;   NELMIN=  2; NELMDL=  0     # of ELM steps 
   EDIFF  = 0.1E-05   stopping-criterion for ELM
   LREAL  =      F    real-space projection
   NLSPLINE    = F    spline interpolate recip. space projectors
   LCOMPAT=      F    compatible to vasp.4.4
   GGA_COMPAT  = T    GGA compatible to vasp.4.4-vasp.4.6
   LMAXPAW     = -100 max onsite density
   LMAXMIX     =    2 max onsite mixed and CHGCAR
   VOSKOWN=      0    Vosko Wilk Nusair interpolation
   ROPT   =    0.00000   0.00000
 Ionic relaxation
   EDIFFG = -.3E-01   stopping-criterion for IOM
   NSW    =     50    number of steps for IOM
   NBLOCK =      1;   KBLOCK =     50    inner block; outer block 
   IBRION =      3    ionic relax: 0-MD 1-quasi-New 2-CG
   NFREE  =      0    steps in history (QN), initial steepest desc. (CG)
   ISIF   =      2    stress and relaxation
   IWAVPR =     11    prediction:  0-non 1-charg 2-wave 3-comb
   ISYM   =      2    0-nonsym 1-usesym 2-fastsym
   LCORR  =      T    Harris-Foulkes like correction to forces

   POTIM  = 0.0000    time-step for ionic-motion
   TEIN   =    0.0    initial temperature
   TEBEG  =    0.0;   TEEND  =   0.0 temperature during run
   SMASS  =  -3.00    Nose mass-parameter (am)
   estimated Nose-frequenzy (Omega)   =  0.10E-29 period in steps =  0.00 mass=  -0.823E-27a.u.
   SCALEE = 1.0000    scale energy and forces
   NPACO  =    256;   APACO  = 16.0  distance and # of slots for P.C.
   PSTRESS=    0.0 pullay stress

  Mass of Ions in am
   POMASS =   1.00 14.00
  Ionic Valenz
   ZVAL   =   1.00  5.00
  Atomic Wigner-Seitz radii
   RWIGS  =  -1.00 -1.00
  virtual crystal weights 
   VCA    =   1.00  1.00
   NELECT =       8.0000    total number of electrons
   NUPDOWN=      -1.0000    fix difference up-down

 DOS related values:
   EMIN   =  10.00;   EMAX   =-10.00  energy-range for DOS
   EFERMI =   0.00
   ISMEAR =     1;   SIGMA  =   0.20  broadening in eV -4-tet -1-fermi 0-gaus

 Electronic relaxation 2 (details)
   IALGO  =     38    algorithm
   LDIAG  =      T    sub-space diagonalisation (order eigenvalues)
   LSUBROT=      F    optimize rotation matrix (better conditioning)
   TURBO    =      0    0=normal 1=particle mesh
   IRESTART =      0    0=no restart 2=restart with 2 vectors
   NREBOOT  =      0    no. of reboots
   NMIN     =      0    reboot dimension
   EREF     =   0.00    reference energy to select bands
   IMIX   =      4    mixing-type and parameters
     AMIX     =   0.40;   BMIX     =  1.00
     AMIX_MAG =   1.60;   BMIX_MAG =  1.00
     AMIN     =   0.10
     WC   =   100.;   INIMIX=   1;  MIXPRE=   1;  MAXMIX= -45

 Intra band minimization:
   WEIMIN = 0.0010     energy-eigenvalue tresh-hold
   EBREAK =  0.31E-07  absolut break condition
   DEPER  =   0.30     relativ break condition  

   TIME   =   0.40     timestep for ELM

  volume/ion in A,a.u.               =      84.00       566.86
  Fermi-wavevector in a.u.,A,eV,Ry     =   0.470968  0.890001  3.017925  0.221811
  Thomas-Fermi vector in A             =   1.463355

 Write flags
   LWAVE        =      T    write WAVECAR
   LDOWNSAMPLE  =      F    k-point downsampling of WAVECAR
   LCHARG       =      T    write CHGCAR
   LVTOT        =      F    write LOCPOT, total local potential
   LVHAR        =      F    write LOCPOT, Hartree potential only
   LELF         =      F    write electronic localiz. function (ELF)
   LORBIT       =      0    0 simple, 1 ext, 2 COOP (PROOUT), +10 PAW based schemes


 Dipole corrections
   LMONO  =      F    monopole corrections only (constant potential shift)
   LDIPOL =      F    correct potential (dipole corrections)
   IDIPOL =      0    1-x, 2-y, 3-z, 4-all directions 
   EPSILON=  1.0000000 bulk dielectric constant

 Exchange correlation treatment:
   GGA     =    --    GGA type
   LEXCH   =     8    internal setting for exchange type
   VOSKOWN=      0    Vosko Wilk Nusair interpolation
   LHFCALC =     F    Hartree Fock is set to
   LHFONE  =     F    Hartree Fock one center treatment
   AEXX    =    0.0000 exact exchange contribution

 Linear response parameters
   LEPSILON=     F    determine dielectric tensor
   LRPA    =     F    only Hartree local field effects (RPA)
   LNABLA  =     F    use nabla operator in PAW spheres
   LVEL    =     F    velocity operator in full k-point grid
   LINTERFAST=   F  fast interpolation
   KINTER  =     0    interpolate to denser k-point grid
   CSHIFT  =0.1000    complex shift for real part using Kramers Kronig
   OMEGAMAX=  -1.0    maximum frequency
   DEG_THRESHOLD= 0.2000000E-02 threshold for treating states as degnerate
   RTIME   =   -0.100 relaxation time in fs
  (WPLASMAI=    0.000 imaginary part of plasma frequency in eV, 0.658/RTIME)
   DFIELD  = 0.0000000 0.0000000 0.0000000 field for delta impulse in time

 Orbital magnetization related:
   ORBITALMAG=     F  switch on orbital magnetization
   LCHIMAG   =     F  perturbation theory with respect to B field
   DQ        =  0.001000  dq finite difference perturbation B field
   LLRAUG    =     F  two centre corrections for induced B field



--------------------------------------------------------------------------------------------------------


 quickmin algorithm: (dynamic with friction)
 charge density and potential will be updated during run
 non-spin polarized calculation
 Variant of blocked Davidson
 Davidson routine will perform the subspace rotation
 perform sub-space diagonalisation
    after iterative eigenvector-optimisation
 modified Broyden-mixing scheme, WC =      100.0
 initial mixing is a Kerker type mixing with AMIX =  0.4000 and BMIX =      1.0000
 Hartree-type preconditioning will be used
 using additional bands            4
 reciprocal scheme for non local part
 use partial core corrections
 calculate Harris-corrections to forces   (improved forces if not selfconsistent)
 use gradient corrections 
 use of overlap-Matrix (Vanderbilt PP)
 Methfessel and Paxton  Order N= 1 SIGMA  =   0.20


--------------------------------------------------------------------------------------------------------


  energy-cutoff  :      400.00
  volume of cell :      336.00
      direct lattice vectors                 reciprocal lattice vectors
     6.000000000  0.000000000  0.000000000     0.166666667  0.000000000  0.000000000
     0.000000000  7.000000000  0.000000000     0.000000000  0.142857143  0.000000000
     0.000000000  0.000000000  8.000000000     0.000000000  0.000000000  0.125000000

  length of vectors
     6.000000000  7.000000000  8.000000000     0.166666667  0.142857143  0.125000000



 old parameters found on file WAVECAR:
  energy-cutoff  :      400.00
  volume of cell :      336.00
      direct lattice vectors                 reciprocal lattice vectors
     6.000000000  0.000000000  0.000000000     0.166666667  0.000000000  0.000000000
     0.000000000  7.000000000  0.000000000     0.000000000  0.142857143  0.000000000
     0.000000000  0.000000000  8.000000000     0.000000000  0.000000000  0.125000000

  length of vectors


 k-points in units of 2pi/SCALE and weight: # No comment                            
   0.00000000  0.00000000  0.00000000       1.000

 k-points in reciprocal lattice and weights: # No comment                            
   0.00000000  0.00000000  0.00000000       1.000

 position of ions in fractional coordinates (direct lattice) 
   0.63642800  0.56745700  0.50000000
   0.50000000  0.36498500  0.50000000
   0.36357200  0.56745700  0.50000000
   0.50000000  0.50000000  0.50000000

 position of ions in cartesian coordinates  (Angst):
   3.81856800  3.97219900  4.00000000
   3.00000000  2.55489500  4.00000000
   2.18143200  3.97219900  4.00000000
   3.00000000  3.50000000  4.00000000



--------------------------------------------------------------------------------------------------------


 k-point  1 :   0.0000 0.0000 0.0000  plane waves:    6075

 maximum and minimum number of plane-waves per node :      6075     6075

 maximum number of plane-waves:      6075
 maximum index in each direction: 
   IXMAX=    9   IYMAX=   11   IZMAX=   13
   IXMIN=   -9   IYMIN=  -11   IZMIN=  -13


 serial   3D FFT for wavefunctions
 parallel 3D FFT for charge:
    minimum data exchange during FFTs selected (reduces bandwidth)


 total amount of memory used by VASP MPI-rank0    49277. kBytes
=======================================================================

   base      :      30000. kBytes
   nonl-proj :       1166. kBytes
   fftplans  :       6115. kBytes
   grid      :      11594. kBytes
   one-center:         12. kBytes
   wavefun   :        390. kBytes

     INWAV:  cpu time    0.0156: real time    0.0021
 Broyden mixing: mesh for mixing (old mesh)
   NGX = 19   NGY = 23   NGZ = 27
  (NGX  = 60   NGY  = 72   NGZ  = 80)
  gives a total of  11799 points

 charge density for first step will be calculated from the start-wavefunctions


--------------------------------------------------------------------------------------------------------


 Maximum index for augmentation-charges          767 (set IRDMAX)


--------------------------------------------------------------------------------------------------------


 initial charge from wavefunction
 First call to EWALD:  gamma=   0.255
 Maximum number of real-space cells 3x 3x 2
 Maximum number of reciprocal cells 2x 3x 3

    FEWALD:  cpu time    0.0156: real time    0.0012


--------------------------------------- Iteration      1(   1)  ---------------------------------------


    POTLOK:  cpu time    0.1406: real time    0.1439
    SETDIJ:  cpu time    0.0000: real time    0.0036
     EDDAV:  cpu time    0.0781: real time    0.0799
       DOS:  cpu time    0.0000: real time    0.0002
    CHARGE:  cpu time    0.0156: real time    0.0186
    MIXING:  cpu time    0.0156: real time    0.0053
    --------------------------------------------
      LOOP:  cpu time    0.2500: real time    0.2515

 eigenvalue-minimisations  :    32
 total energy-change (2. order) :-0.1946392E+02  (-0.7676206E+00)
 number of electron       8.0000070 magnetization 
 augmentation part        0.3988344 magnetization 

 Broyden mixing:
  rms(total) = 0.43638E+00    rms(broyden)= 0.43614E+00
  rms(prec ) = 0.62321E+00
  weight for this iteration     100.00

 Free energy of the ion-electron system (eV)
  ---------------------------------------------------
  alpha Z        PSCENC =         0.68708806
  Ewald energy   TEWEN  =        73.50991811
  -Hartree energ DENC   =      -310.55085043
  -exchange      EXHF   =         0.00000000
  -V(xc)+E(xc)   XCENC  =        28.95346061
  PAW double counting   =       686.36435286     -688.00163896
  entropy T*S    EENTRO =         0.01159581
  eigenvalues    EBANDS =      -112.34874256
  atomic energy  EATOM  =       301.91090041
  Solvation  Ediel_sol  =         0.00000000
  ---------------------------------------------------
  free energy    TOTEN  =       -19.46391608 eV

  energy without entropy =      -19.47551189  energy(sigma->0) =      -19.46778135


--------------------------------------------------------------------------------------------------------




--------------------------------------- Iteration      1(   2)  ---------------------------------------


    POTLOK:  cpu time    0.1250: real time    0.1269
    SETDIJ:  cpu time    0.0000: real time    0.0035
     EDDAV:  cpu time    0.0469: real time    0.0481
       DOS:  cpu time    0.0000: real time    0.0001
    CHARGE:  cpu time    0.0156: real time    0.0134
    MIXING:  cpu time    0.0000: real time    0.0043
    --------------------------------------------
      LOOP:  cpu time    0.1875: real time    0.1963

 eigenvalue-minimisations  :    16
 total energy-change (2. order) : 0.4767031E+00  (-0.2471122E+00)
 number of electron       8.0000066 magnetization 
 augmentation part        0.3588429 magnetization 

 Broyden mixing:
  rms(total) = 0.32527E-01    rms(broyden)= 0.32091E-01
  rms(prec ) = 0.54173E-01
  weight for this iteration     100.00

 eigenvalues of (default mixing * dielectric matrix)
  average eigenvalue GAMMA=   1.0621
  1.0621

 Free energy of the ion-electron system (eV)
  ---------------------------------------------------
  alpha Z        PSCENC =         0.68708806
  Ewald energy   TEWEN  =        73.50991811
  -Hartree energ DENC   =      -320.25024053
  -exchange      EXHF   =         0.00000000
  -V(xc)+E(xc)   XCENC  =        29.48653075
  PAW double counting   =       680.18444969     -681.92109630
  entropy T*S    EENTRO =         0.01159581
  eigenvalues    EBANDS =      -102.60635896
  atomic energy  EATOM  =       301.91090041
  Solvation  Ediel_sol  =         0.00000000
  ---------------------------------------------------
  free energy    TOTEN  =       -18.98721296 eV

  energy without entropy =      -18.99880877  energy(sigma->0) =      -18.99107823


--------------------------------------------------------------------------------------------------------




--------------------------------------- Iteration      1(   3)  ---------------------------------------


    POTLOK:  cpu time    0.1094: real time    0.1213
    SETDIJ:  cpu time    0.0000: real time    0.0032
     EDDAV:  cpu time    0.0625: real time    0.0593
       DOS:  cpu time    0.0000: real time    0.0002
    CHARGE:  cpu time    0.0156: real time    0.0157
    MIXING:  cpu time    0.0156: real time    0.0049
    --------------------------------------------
      LOOP:  cpu time    0.2031: real time    0.2045

 eigenvalue-minimisations  :    32
 total energy-change (2. order) : 0.1143609E-02  (-0.3481393E-02)
 number of electron       8.0000066 magnetization 
 augmentation part        0.3559908 magnetization 

 Broyden mixing:
  rms(total) = 0.18212E-01    rms(broyden)= 0.18131E-01
  rms(prec ) = 0.24847E-01
  weight for this iteration     100.00

 eigenvalues of (default mixing * dielectric matrix)
  average eigenvalue GAMMA=   0.8551
  1.0010  0.7092

 Free energy of the ion-electron system (eV)
  ---------------------------------------------------
  alpha Z        PSCENC =         0.68708806
  Ewald energy   TEWEN  =        73.50991811
  -Hartree energ DENC   =      -321.46465736
  -exchange      EXHF   =         0.00000000
  -V(xc)+E(xc)   XCENC  =        29.55610376
  PAW double counting   =       677.30489913     -679.04339065
  entropy T*S    EENTRO =         0.01159581
  eigenvalues    EBANDS =      -101.45852662
  atomic energy  EATOM  =       301.91090041
  Solvation  Ediel_sol  =         0.00000000
  ---------------------------------------------------
  free energy    TOTEN  =       -18.98606935 eV

  energy without entropy =      -18.99766516  energy(sigma->0) =      -18.98993462


--------------------------------------------------------------------------------------------------------




--------------------------------------- Iteration      1(   4)  ---------------------------------------


    POTLOK:  cpu time    0.1094: real time    0.1239
    SETDIJ:  cpu time    0.0000: real time    0.0034
     EDDAV:  cpu time    0.0469: real time    0.0439
       DOS:  cpu time    0.0000: real time    0.0002
    CHARGE:  cpu time    0.0156: real time    0.0134
    MIXING:  cpu time    0.0156: real time    0.0062
    --------------------------------------------
      LOOP:  cpu time    0.1875: real time    0.1911

 eigenvalue-minimisations  :    16
 total energy-change (2. order) : 0.2089569E-03  (-0.1485414E-04)
 number of electron       8.0000066 magnetization 
 augmentation part        0.3561068 magnetization 

 Broyden mixing:
  rms(total) = 0.10099E-01    rms(broyden)= 0.10094E-01
  rms(prec ) = 0.16061E-01
  weight for this iteration     100.00

 eigenvalues of (default mixing * dielectric matrix)
  average eigenvalue GAMMA=   1.4545
  1.0039  1.0564  2.3032

 Free energy of the ion-electron system (eV)
  ---------------------------------------------------
  alpha Z        PSCENC =         0.68708806
  Ewald energy   TEWEN  =        73.50991811
  -Hartree energ DENC   =      -321.66681423
  -exchange      EXHF   =         0.00000000
  -V(xc)+E(xc)   XCENC  =        29.56879696
  PAW double counting   =       679.15733200     -680.89305634
  entropy T*S    EENTRO =         0.01159581
  eigenvalues    EBANDS =      -101.27162118
  atomic energy  EATOM  =       301.91090041
  Solvation  Ediel_sol  =         0.00000000
  ---------------------------------------------------
  free energy    TOTEN  =       -18.98586040 eV

  energy without entropy =      -18.99745621  energy(sigma->0) =      -18.98972567


--------------------------------------------------------------------------------------------------------




--------------------------------------- Iteration      1(   5)  ---------------------------------------


    POTLOK:  cpu time    0.1250: real time    0.1275
    SETDIJ:  cpu time    0.0000: real time    0.0038
     EDDAV:  cpu time    0.0469: real time    0.0408
       DOS:  cpu time    0.0000: real time    0.0001
    CHARGE:  cpu time    0.0000: real time    0.0132
    MIXING:  cpu time    0.0156: real time    0.0051
    --------------------------------------------
      LOOP:  cpu time    0.1875: real time    0.1905

 eigenvalue-minimisations  :    16
 total energy-change (2. order) : 0.1395782E-03  (-0.5207019E-04)
 number of electron       8.0000066 magnetization 
 augmentation part        0.3560102 magnetization 

 Broyden mixing:
  rms(total) = 0.36772E-02    rms(broyden)= 0.36756E-02
  rms(prec ) = 0.56181E-02
  weight for this iteration     100.00

 eigenvalues of (default mixing * dielectric matrix)
  average eigenvalue GAMMA=   1.7231
  1.0493  1.0493  2.3970  2.3970

 Free energy of the ion-electron system (eV)
  ---------------------------------------------------
  alpha Z        PSCENC =         0.68708806
  Ewald energy   TEWEN  =        73.50991811
  -Hartree energ DENC   =      -322.21364135
  -exchange      EXHF   =         0.00000000
  -V(xc)+E(xc)   XCENC  =        29.60080794
  PAW double counting   =       681.95332675     -683.68436707
  entropy T*S    EENTRO =         0.01159581
  eigenvalues    EBANDS =      -100.76134948
  atomic energy  EATOM  =       301.91090041
  Solvation  Ediel_sol  =         0.00000000
  ---------------------------------------------------
  free energy    TOTEN  =       -18.98572082 eV

  energy without entropy =      -18.99731663  energy(sigma->0) =      -18.98958609


--------------------------------------------------------------------------------------------------------




--------------------------------------- Iteration      1(   6)  ---------------------------------------


    POTLOK:  cpu time    0.1250: real time    0.1214
    SETDIJ:  cpu time    0.0000: real time    0.0034
     EDDAV:  cpu time    0.0469: real time    0.0483
       DOS:  cpu time    0.0000: real time    0.0001
    CHARGE:  cpu time    0.0000: real time    0.0089
    MIXING:  cpu time    0.0156: real time    0.0037
    --------------------------------------------
      LOOP:  cpu time    0.1875: real time    0.1858

 eigenvalue-minimisations  :    16
 total energy-change (2. order) :-0.3824146E-03  (-0.1237273E-04)
 number of electron       8.0000066 magnetization 
 augmentation part        0.3557749 magnetization 

 Broyden mixing:
  rms(total) = 0.11528E-02    rms(broyden)= 0.11503E-02
  rms(prec ) = 0.22162E-02
  weight for this iteration     100.00

 eigenvalues of (default mixing * dielectric matrix)
  average eigenvalue GAMMA=   1.7732
  3.2862  2.5148  1.0633  1.0633  0.9382

 Free energy of the ion-electron system (eV)
  ---------------------------------------------------
  alpha Z        PSCENC =         0.68708806
  Ewald energy   TEWEN  =        73.50991811
  -Hartree energ DENC   =      -322.37219141
  -exchange      EXHF   =         0.00000000
  -V(xc)+E(xc)   XCENC  =        29.60587629
  PAW double counting   =       679.97951948     -681.71083287
  entropy T*S    EENTRO =         0.01159581
  eigenvalues    EBANDS =      -100.60797711
  atomic energy  EATOM  =       301.91090041
  Solvation  Ediel_sol  =         0.00000000
  ---------------------------------------------------
  free energy    TOTEN  =       -18.98610323 eV

  energy without entropy =      -18.99769904  energy(sigma->0) =      -18.98996850


--------------------------------------------------------------------------------------------------------




--------------------------------------- Iteration      1(   7)  ---------------------------------------


    POTLOK:  cpu time    0.1250: real time    0.1254
    SETDIJ:  cpu time    0.0000: real time    0.0033
     EDDAV:  cpu time    0.0625: real time    0.0580
       DOS:  cpu time    0.0000: real time    0.0001
    CHARGE:  cpu time    0.0000: real time    0.0091
    MIXING:  cpu time    0.0000: real time    0.0045
    --------------------------------------------
      LOOP:  cpu time    0.1875: real time    0.2004

 eigenvalue-minimisations  :    24
 total energy-change (2. order) :-0.1254694E-03  (-0.2956468E-05)
 number of electron       8.0000066 magnetization 
 augmentation part        0.3558909 magnetization 

 Broyden mixing:
  rms(total) = 0.62873E-03    rms(broyden)= 0.62862E-03
  rms(prec ) = 0.11083E-02
  weight for this iteration     100.00

 eigenvalues of (default mixing * dielectric matrix)
  average eigenvalue GAMMA=   1.8832
  3.9669  2.3483  1.9573  1.0598  1.0598  0.9071

 Free energy of the ion-electron system (eV)
  ---------------------------------------------------
  alpha Z        PSCENC =         0.68708806
  Ewald energy   TEWEN  =        73.50991811
  -Hartree energ DENC   =      -322.38129380
  -exchange      EXHF   =         0.00000000
  -V(xc)+E(xc)   XCENC  =        29.60518760
  PAW double counting   =       679.68889719     -681.41983297
  entropy T*S    EENTRO =         0.01159581
  eigenvalues    EBANDS =      -100.59868909
  atomic energy  EATOM  =       301.91090041
  Solvation  Ediel_sol  =         0.00000000
  ---------------------------------------------------
  free energy    TOTEN  =       -18.98622870 eV

  energy without entropy =      -18.99782451  energy(sigma->0) =      -18.99009397


--------------------------------------------------------------------------------------------------------




--------------------------------------- Iteration      1(   8)  ---------------------------------------


    POTLOK:  cpu time    0.1250: real time    0.1111
    SETDIJ:  cpu time    0.0000: real time    0.0033
     EDDAV:  cpu time    0.0469: real time    0.0437
       DOS:  cpu time    0.0000: real time    0.0001
    CHARGE:  cpu time    0.0000: real time    0.0121
    MIXING:  cpu time    0.0156: real time    0.0066
    --------------------------------------------
      LOOP:  cpu time    0.1875: real time    0.1769

 eigenvalue-minimisations  :    16
 total energy-change (2. order) :-0.9919769E-04  (-0.6305431E-06)
 number of electron       8.0000066 magnetization 
 augmentation part        0.3558799 magnetization 

 Broyden mixing:
  rms(total) = 0.23638E-03    rms(broyden)= 0.23631E-03
  rms(prec ) = 0.49540E-03
  weight for this iteration     100.00

 eigenvalues of (default mixing * dielectric matrix)
  average eigenvalue GAMMA=   2.0780
  4.8043  3.1766  2.2561  1.2458  0.9354  1.0638  1.0638

 Free energy of the ion-electron system (eV)
  ---------------------------------------------------
  alpha Z        PSCENC =         0.68708806
  Ewald energy   TEWEN  =        73.50991811
  -Hartree energ DENC   =      -322.40031705
  -exchange      EXHF   =         0.00000000
  -V(xc)+E(xc)   XCENC  =        29.60573605
  PAW double counting   =       679.97654111     -681.70750219
  entropy T*S    EENTRO =         0.01159581
  eigenvalues    EBANDS =      -100.58028821
  atomic energy  EATOM  =       301.91090041
  Solvation  Ediel_sol  =         0.00000000
  ---------------------------------------------------
  free energy    TOTEN  =       -18.98632790 eV

  energy without entropy =      -18.99792371  energy(sigma->0) =      -18.99019317


--------------------------------------------------------------------------------------------------------




--------------------------------------- Iteration      1(   9)  ---------------------------------------


    POTLOK:  cpu time    0.1250: real time    0.1318
    SETDIJ:  cpu time    0.0156: real time    0.0032
     EDDAV:  cpu time    0.0312: real time    0.0396
       DOS:  cpu time    0.0000: real time    0.0001
    CHARGE:  cpu time    0.0156: real time    0.0104
    MIXING:  cpu time    0.0000: real time    0.0065
    --------------------------------------------
      LOOP:  cpu time    0.1875: real time    0.1917

 eigenvalue-minimisations  :    16
 total energy-change (2. order) :-0.4279421E-04  (-0.4093648E-06)
 number of electron       8.0000066 magnetization 
 augmentation part        0.3558581 magnetization 

 Broyden mixing:
  rms(total) = 0.15079E-03    rms(broyden)= 0.15065E-03
  rms(prec ) = 0.23635E-03
  weight for this iteration     100.00

 eigenvalues of (default mixing * dielectric matrix)
  average eigenvalue GAMMA=   2.2441
  5.5482  3.4117  2.6989  2.1678  1.0669  1.0669  0.9647  1.0281

 Free energy of the ion-electron system (eV)
  ---------------------------------------------------
  alpha Z        PSCENC =         0.68708806
  Ewald energy   TEWEN  =        73.50991811
  -Hartree energ DENC   =      -322.40004060
  -exchange      EXHF   =         0.00000000
  -V(xc)+E(xc)   XCENC  =        29.60542744
  PAW double counting   =       680.02892836     -681.76003598
  entropy T*S    EENTRO =         0.01159581
  eigenvalues    EBANDS =      -100.58015230
  atomic energy  EATOM  =       301.91090041
  Solvation  Ediel_sol  =         0.00000000
  ---------------------------------------------------
  free energy    TOTEN  =       -18.98637069 eV

  energy without entropy =      -18.99796650  energy(sigma->0) =      -18.99023596


--------------------------------------------------------------------------------------------------------




--------------------------------------- Iteration      1(  10)  ---------------------------------------


    POTLOK:  cpu time    0.1250: real time    0.1290
    SETDIJ:  cpu time    0.0156: real time    0.0043
     EDDAV:  cpu time    0.0312: real time    0.0378
       DOS:  cpu time    0.0000: real time    0.0001
    CHARGE:  cpu time    0.0000: real time    0.0093
    MIXING:  cpu time    0.0156: real time    0.0080
    --------------------------------------------
      LOOP:  cpu time    0.1875: real time    0.1886

 eigenvalue-minimisations  :    16
 total energy-change (2. order) :-0.1404521E-04  (-0.1235493E-06)
 number of electron       8.0000066 magnetization 
 augmentation part        0.3558628 magnetization 

 Broyden mixing:
  rms(total) = 0.65366E-04    rms(broyden)= 0.65353E-04
  rms(prec ) = 0.91283E-04
  weight for this iteration     100.00

 eigenvalues of (default mixing * dielectric matrix)
  average eigenvalue GAMMA=   2.1645
  5.6413  3.5093  2.3149  2.3149  1.6044  1.0711  1.0711  0.9562  0.9978

 Free energy of the ion-electron system (eV)
  ---------------------------------------------------
  alpha Z        PSCENC =         0.68708806
  Ewald energy   TEWEN  =        73.50991811
  -Hartree energ DENC   =      -322.40222465
  -exchange      EXHF   =         0.00000000
  -V(xc)+E(xc)   XCENC  =        29.60556437
  PAW double counting   =       680.03561277     -681.76663377
  entropy T*S    EENTRO =         0.01159581
  eigenvalues    EBANDS =      -100.57820584
  atomic energy  EATOM  =       301.91090041
  Solvation  Ediel_sol  =         0.00000000
  ---------------------------------------------------
  free energy    TOTEN  =       -18.98638474 eV

  energy without entropy =      -18.99798055  energy(sigma->0) =      -18.99025001


--------------------------------------------------------------------------------------------------------




--------------------------------------- Iteration      1(  11)  ---------------------------------------


    POTLOK:  cpu time    0.1250: real time    0.1211
    SETDIJ:  cpu time    0.0000: real time    0.0038
     EDDAV:  cpu time    0.0469: real time    0.0476
       DOS:  cpu time    0.0000: real time    0.0001
    CHARGE:  cpu time    0.0156: real time    0.0124
    MIXING:  cpu time    0.0000: real time    0.0047
    --------------------------------------------
      LOOP:  cpu time    0.1875: real time    0.1897

 eigenvalue-minimisations  :    24
 total energy-change (2. order) :-0.1879697E-05  (-0.1208578E-07)
 number of electron       8.0000066 magnetization 
 augmentation part        0.3558657 magnetization 

 Broyden mixing:
  rms(total) = 0.25139E-04    rms(broyden)= 0.25129E-04
  rms(prec ) = 0.46052E-04
  weight for this iteration     100.00

 eigenvalues of (default mixing * dielectric matrix)
  average eigenvalue GAMMA=   2.2753
  6.0678  4.1038  2.8906  2.5399  1.9363  0.9486  0.9796  1.0755  1.0755  1.1352

 Free energy of the ion-electron system (eV)
  ---------------------------------------------------
  alpha Z        PSCENC =         0.68708806
  Ewald energy   TEWEN  =        73.50991811
  -Hartree energ DENC   =      -322.40017508
  -exchange      EXHF   =         0.00000000
  -V(xc)+E(xc)   XCENC  =        29.60542930
  PAW double counting   =       680.01503954     -681.74606920
  entropy T*S    EENTRO =         0.01159581
  eigenvalues    EBANDS =      -100.58011356
  atomic energy  EATOM  =       301.91090041
  Solvation  Ediel_sol  =         0.00000000
  ---------------------------------------------------
  free energy    TOTEN  =       -18.98638662 eV

  energy without entropy =      -18.99798243  energy(sigma->0) =      -18.99025189


--------------------------------------------------------------------------------------------------------




--------------------------------------- Iteration      1(  12)  ---------------------------------------


    POTLOK:  cpu time    0.1094: real time    0.1080
    SETDIJ:  cpu time    0.0000: real time    0.0031
     EDDAV:  cpu time    0.0469: real time    0.0387
       DOS:  cpu time    0.0000: real time    0.0002
    --------------------------------------------
      LOOP:  cpu time    0.1562: real time    0.1499

 eigenvalue-minimisations  :    16
 total energy-change (2. order) :-0.8074069E-06  (-0.9336652E-08)
 number of electron       8.0000066 magnetization 
 augmentation part        0.3558657 magnetization 

 Free energy of the ion-electron system (eV)
  ---------------------------------------------------
  alpha Z        PSCENC =         0.68708806
  Ewald energy   TEWEN  =        73.50991811
  -Hartree energ DENC   =      -322.40034475
  -exchange      EXHF   =         0.00000000
  -V(xc)+E(xc)   XCENC  =        29.60543080
  PAW double counting   =       680.00170979     -681.73274217
  entropy T*S    EENTRO =         0.01159581
  eigenvalues    EBANDS =      -100.57994348
  atomic energy  EATOM  =       301.91090041
  Solvation  Ediel_sol  =         0.00000000
  ---------------------------------------------------
  free energy    TOTEN  =       -18.98638743 eV

  energy without entropy =      -18.99798324  energy(sigma->0) =      -18.99025270


--------------------------------------------------------------------------------------------------------




 average (electrostatic) potential at core
  the test charge radii are     0.5201  0.7089
  (the norm of the test charge is              1.0000)
       1 -43.8224       2 -43.8172       3 -43.8224       4 -72.3395



 E-fermi :  -5.0366     XC(G=0):  -1.6648     alpha+bet : -0.5051


 k-point     1 :       0.0000    0.0000    0.0000
  band No.  band energies     occupation 
      1     -21.0874      2.00000
      2     -11.9991      2.00000
      3     -11.9985      2.00000
      4      -5.2050      2.00000
      5      -0.9866     -0.00000
      6       1.4998      0.00000
      7       1.6828      0.00000
      8       1.8757      0.00000


--------------------------------------------------------------------------------------------------------


 soft charge-density along one line, spin component           1
         0         1         2         3         4         5         6         7         8         9
 total charge-density along one line

 pseudopotential strength for first ion, spin component:           1
 -2.368  -4.087   0.001   0.000   0.002
 -4.087  -6.967   0.005   0.000   0.008
  0.001   0.005  -0.323  -0.000   0.005
  0.000   0.000  -0.000  -0.326   0.000
  0.002   0.008   0.005   0.000  -0.317
 total augmentation occupancy for first ion, spin component:           1
  4.113  -0.787  -0.372   0.000  -0.644
 -0.787   0.177   0.070   0.000   0.120
 -0.372   0.070   0.047   0.000   0.051
  0.000   0.000   0.000   0.045   0.000
 -0.644   0.120   0.051   0.000   0.106


------------------------ aborting loop because EDIFF is reached ----------------------------------------


    CHARGE:  cpu time    0.0000: real time    0.0106
    FORLOC:  cpu time    0.0156: real time    0.0071
    FORNL :  cpu time    0.0156: real time    0.0059
    STRESS:  cpu time    0.0625: real time    0.0571
    FORCOR:  cpu time    0.1094: real time    0.1120
    FORHAR:  cpu time    0.0312: real time    0.0378
    MIXING:  cpu time    0.0000: real time    0.0063
    OFIELD:  cpu time    0.0000: real time    0.0000

  FORCE on cell =-STRESS in cart. coord.  units (eV):
  Direction    XX          YY          ZZ          XY          YZ          ZX
  --------------------------------------------------------------------------------------
  Alpha Z     0.68709     0.68709     0.68709
  Ewald      96.04386    67.42999   -89.96396    -0.00000    -0.00000     0.00000
  Hartree   141.66621   115.02717    65.70769    -0.00000    -0.00000    -0.00000
  E(xc)     -31.49809   -31.49907   -31.93680     0.00000     0.00000    -0.00000
  Local    -299.41080  -244.18138   -75.83037     0.00000     0.00000     0.00000
  n-local   -25.02971   -25.02026   -26.64206     0.00000    -0.00000     0.00000
  augment     1.18894     1.19066     2.21077    -0.00000     0.00000     0.00000
  Kinetic   120.38583   120.35773   154.86559    -0.00000    -0.00000    -0.00000
  Fock        0.00000     0.00000     0.00000     0.00000     0.00000     0.00000
  -------------------------------------------------------------------------------------
  Total       4.03333     3.99193    -0.90205     0.00000     0.00000     0.00000
  in kB      19.23247    19.03505    -4.30131     0.00000     0.00000     0.00000
  external pressure =       11.32 kB  Pullay stress =        0.00 kB


 VOLUME and BASIS-vectors are now :
 -----------------------------------------------------------------------------
  energy-cutoff  :      400.00
  volume of cell :      336.00
      direct lattice vectors                 reciprocal lattice vectors
     6.000000000  0.000000000  0.000000000     0.166666667  0.000000000  0.000000000
     0.000000000  7.000000000  0.000000000     0.000000000  0.142857143  0.000000000
     0.000000000  0.000000000  8.000000000     0.000000000  0.000000000  0.125000000

  length of vectors
     6.000000000  7.000000000  8.000000000     0.166666667  0.142857143  0.125000000


 FORCES acting on ions
    electron-ion (+dipol)            ewald-force                    non-local-force                 convergence-correction
 -----------------------------------------------------------------------------------------------
   -.649E+02 -.381E+02 -.128E-06   0.758E+02 0.443E+02 -.305E-17   -.791E+01 -.456E+01 0.000E+00   0.365E-04 0.335E-04 -.339E-15
   0.193E-13 0.760E+02 0.198E-06   0.493E-15 -.886E+02 0.334E-17   0.000E+00 0.913E+01 0.000E+00   0.128E-14 -.425E-04 0.210E-14
   0.649E+02 -.381E+02 0.214E-06   -.758E+02 0.443E+02 -.487E-17   0.791E+01 -.456E+01 0.000E+00   -.365E-04 0.335E-04 -.130E-14
   0.987E-13 0.749E-01 0.513E-12   -.141E-13 -.932E-01 0.458E-17   0.000E+00 0.294E-01 0.000E+00   0.115E-13 0.112E-03 -.415E-14
 -----------------------------------------------------------------------------------------------
   0.127E-12 -.329E-01 0.284E-06   0.951E-16 -.555E-16 0.000E+00   0.000E+00 0.332E-01 0.000E+00   0.122E-13 0.137E-03 -.369E-14


 POSITION                                       TOTAL-FORCE (eV/Angst)
 -----------------------------------------------------------------------------------
      3.81857      3.97220      4.00000         2.966805      1.709798      0.000000
      3.00000      2.55489      4.00000         0.000000     -3.430643      0.000000
      2.18143      3.97220      4.00000        -2.966805      1.709798      0.000000
      3.00000      3.50000      4.00000         0.000000      0.011046      0.000000
 -----------------------------------------------------------------------------------
    total drift:                                0.000000      0.000429      0.000000


--------------------------------------------------------------------------------------------------------



  FREE ENERGIE OF THE ION-ELECTRON SYSTEM (eV)
  ---------------------------------------------------
  free  energy   TOTEN  =       -18.98638743 eV

  energy  without entropy=      -18.99798324  energy(sigma->0) =      -18.99025270



--------------------------------------------------------------------------------------------------------


    POTLOK:  cpu time    0.1094: real time    0.1020


--------------------------------------------------------------------------------------------------------


 NEB: the previous image is higher in energy: F
 NEB: the next image is higher in energy    : F
 NEB: image is at an extrema
 NEB: diff energy (min, max):     0.241481    0.241481

 NEB: Tangent
 ----------------------------------------------
      0.00000      0.00000     -0.57747
      0.00000      0.00000     -0.57710
      0.00000      0.00000     -0.57747
      0.00000      0.00000      0.00000

 NEB: forces: par spring, perp REAL, dneb     0.000000    5.934654    0.000000
 NEB: distance to prev, next image, angle between     0.340549    0.340549  180.000000
 NEB: projections on to tangent (spring, REAL)     0.000000    0.000000

 stress matrix after NEB project (eV)
      4.03333      0.00000      0.00000
      0.00000      3.99193      0.00000
      0.00000      0.00000     -0.90205
  FORCES: max atom, RMS     3.430643    2.967327
  FORCE total and by dimension    5.934654    3.430643
  Stress total and by dimension    5.746036    4.033330
 
 OPT: Flag T
 OPT: LBFGS Step
 OPT: LBFGS start
 OPT: LBFGS, initial finite difference
 OPT: LBFGS: positions in Cartesian coordinates
      3.82029032      3.97319159      4.00000000
      3.00000000      2.55290341      4.00000000
      2.17970968      3.97319159      4.00000000
      3.00000000      3.50000641      4.00000000
 OPT: LBFGS END subroutine


--------------------------------------------------------------------------------------------------------


    WAVPRE:  cpu time    0.3594: real time    0.3565
    FEWALD:  cpu time    0.0000: real time    0.0002
    ORTHCH:  cpu time    0.0000: real time    0.0021
     LOOP+:  cpu time    3.0000: real time    3.0188


--------------------------------------- Iteration      2(   1)  ---------------------------------------


    POTLOK:  cpu time    0.1094: real time    0.1155
    SETDIJ:  cpu time    0.0156: real time    0.0041
     EDDAV:  cpu time    0.0312: real time    0.0347
       DOS:  cpu time    0.0000: real time    0.0001
    CHARGE:  cpu time    0.0156: real time    0.0145
    MIXING:  cpu time    0.0000: real time    0.0042
    --------------------------------------------
      LOOP:  cpu time    0.1719: real time    0.1732

 eigenvalue-minimisations  :    16
 total energy-change (2. order) :-0.2012796E-01  (-0.6376923E-03)
 number of electron       8.0000065 magnetization 
 augmentation part        0.3544118 magnetization 

 Broyden mixing:
  rms(total) = 0.60844E-02    rms(broyden)= 0.60810E-02
  rms(prec ) = 0.84371E-02
  weight for this iteration     100.00

 Free energy of the ion-electron system (eV)
  ---------------------------------------------------
  alpha Z        PSCENC =         0.68708806
  Ewald energy   TEWEN  =        72.98548838
  -Hartree energ DENC   =      -322.14776033
  -exchange      EXHF   =         0.00000000
  -V(xc)+E(xc)   XCENC  =        29.59182719
  PAW double counting   =       680.01267764     -681.74370786
  entropy T*S    EENTRO =         0.01159581
  eigenvalues    EBANDS =      -100.31462388
  atomic energy  EATOM  =       301.91090041
  Solvation  Ediel_sol  =         0.00000000
  ---------------------------------------------------
  free energy    TOTEN  =       -19.00651458 eV

  energy without entropy =      -19.01811039  energy(sigma->0) =      -19.01037985


--------------------------------------------------------------------------------------------------------




--------------------------------------- Iteration      2(   2)  ---------------------------------------


    POTLOK:  cpu time    0.1250: real time    0.1224
    SETDIJ:  cpu time    0.0000: real time    0.0022
     EDDAV:  cpu time    0.0312: real time    0.0346
       DOS:  cpu time    0.0000: real time    0.0002
    CHARGE:  cpu time    0.0156: real time    0.0119
    MIXING:  cpu time    0.0000: real time    0.0042
    --------------------------------------------
      LOOP:  cpu time    0.1719: real time    0.1755

 eigenvalue-minimisations  :    16
 total energy-change (2. order) : 0.8458801E-04  (-0.3490124E-04)
 number of electron       8.0000065 magnetization 
 augmentation part        0.3548459 magnetization 

 Broyden mixing:
  rms(total) = 0.22733E-02    rms(broyden)= 0.22699E-02
  rms(prec ) = 0.26123E-02
  weight for this iteration     100.00

 eigenvalues of (default mixing * dielectric matrix)
  average eigenvalue GAMMA=   1.2876
  1.2876

 Free energy of the ion-electron system (eV)
  ---------------------------------------------------
  alpha Z        PSCENC =         0.68708806
  Ewald energy   TEWEN  =        72.98548838
  -Hartree energ DENC   =      -322.01952946
  -exchange      EXHF   =         0.00000000
  -V(xc)+E(xc)   XCENC  =        29.58450867
  PAW double counting   =       678.82837062     -680.55737388
  entropy T*S    EENTRO =         0.01159581
  eigenvalues    EBANDS =      -100.43747861
  atomic energy  EATOM  =       301.91090041
  Solvation  Ediel_sol  =         0.00000000
  ---------------------------------------------------
  free energy    TOTEN  =       -19.00642999 eV

  energy without entropy =      -19.01802580  energy(sigma->0) =      -19.01029526


--------------------------------------------------------------------------------------------------------




--------------------------------------- Iteration      2(   3)  ---------------------------------------


    POTLOK:  cpu time    0.1250: real time    0.1114
    SETDIJ:  cpu time    0.0000: real time    0.0033
     EDDAV:  cpu time    0.0625: real time    0.0630
       DOS:  cpu time    0.0000: real time    0.0001
    CHARGE:  cpu time    0.0000: real time    0.0113
    MIXING:  cpu time    0.0156: real time    0.0046
    --------------------------------------------
      LOOP:  cpu time    0.2031: real time    0.1937

 eigenvalue-minimisations  :    32
 total energy-change (2. order) : 0.2481018E-05  (-0.2269267E-05)
 number of electron       8.0000065 magnetization 
 augmentation part        0.3549553 magnetization 

 Broyden mixing:
  rms(total) = 0.14418E-02    rms(broyden)= 0.14412E-02
  rms(prec ) = 0.15482E-02
  weight for this iteration     100.00

 eigenvalues of (default mixing * dielectric matrix)
  average eigenvalue GAMMA=   1.9400
  1.2599  2.6201

 Free energy of the ion-electron system (eV)
  ---------------------------------------------------
  alpha Z        PSCENC =         0.68708806
  Ewald energy   TEWEN  =        72.98548838
  -Hartree energ DENC   =      -321.99397456
  -exchange      EXHF   =         0.00000000
  -V(xc)+E(xc)   XCENC  =        29.58300624
  PAW double counting   =       678.05926253     -679.78754385
  entropy T*S    EENTRO =         0.01159581
  eigenvalues    EBANDS =      -100.46225054
  atomic energy  EATOM  =       301.91090041
  Solvation  Ediel_sol  =         0.00000000
  ---------------------------------------------------
  free energy    TOTEN  =       -19.00642751 eV

  energy without entropy =      -19.01802332  energy(sigma->0) =      -19.01029278


--------------------------------------------------------------------------------------------------------




--------------------------------------- Iteration      2(   4)  ---------------------------------------


    POTLOK:  cpu time    0.1094: real time    0.1163
    SETDIJ:  cpu time    0.0000: real time    0.0024
     EDDAV:  cpu time    0.0312: real time    0.0317
       DOS:  cpu time    0.0000: real time    0.0001
    --------------------------------------------
      LOOP:  cpu time    0.1406: real time    0.1504

 eigenvalue-minimisations  :    16
 total energy-change (2. order) :-0.4157012E-06  (-0.7188144E-06)
 number of electron       8.0000065 magnetization 
 augmentation part        0.3549553 magnetization 

 Free energy of the ion-electron system (eV)
  ---------------------------------------------------
  alpha Z        PSCENC =         0.68708806
  Ewald energy   TEWEN  =        72.98548838
  -Hartree energ DENC   =      -322.00497564
  -exchange      EXHF   =         0.00000000
  -V(xc)+E(xc)   XCENC  =        29.58350681
  PAW double counting   =       677.12810784     -678.85603507
  entropy T*S    EENTRO =         0.01159581
  eigenvalues    EBANDS =      -100.45210452
  atomic energy  EATOM  =       301.91090041
  Solvation  Ediel_sol  =         0.00000000
  ---------------------------------------------------
  free energy    TOTEN  =       -19.00642793 eV

  energy without entropy =      -19.01802374  energy(sigma->0) =      -19.01029320


--------------------------------------------------------------------------------------------------------




 average (electrostatic) potential at core
  the test charge radii are     0.5201  0.7089
  (the norm of the test charge is              1.0000)
       1 -43.7916       2 -43.7864       3 -43.7916       4 -72.3369



 E-fermi :  -5.0316     XC(G=0):  -1.6615     alpha+bet : -0.5051


 k-point     1 :       0.0000    0.0000    0.0000
  band No.  band energies     occupation 
      1     -21.0646      2.00000
      2     -11.9811      2.00000
      3     -11.9804      2.00000
      4      -5.2000      2.00000
      5      -0.9896     -0.00000
      6       1.5084      0.00000
      7       1.6820      0.00000
      8       1.8709      0.00000


--------------------------------------------------------------------------------------------------------


 soft charge-density along one line, spin component           1
         0         1         2         3         4         5         6         7         8         9
 total charge-density along one line

 pseudopotential strength for first ion, spin component:           1
 -2.368  -4.086   0.001   0.000   0.002
 -4.086  -6.966   0.005   0.000   0.008
  0.001   0.005  -0.323  -0.000   0.005
  0.000   0.000  -0.000  -0.326   0.000
  0.002   0.008   0.005   0.000  -0.317
 total augmentation occupancy for first ion, spin component:           1
  4.109  -0.788  -0.370   0.000  -0.640
 -0.788   0.177   0.069   0.000   0.120
 -0.370   0.069   0.046   0.000   0.050
  0.000   0.000   0.000   0.045   0.000
 -0.640   0.120   0.050   0.000   0.104


------------------------ aborting loop because EDIFF is reached ----------------------------------------


    CHARGE:  cpu time    0.0156: real time    0.0092
    FORLOC:  cpu time    0.0156: real time    0.0093
    FORNL :  cpu time    0.0000: real time    0.0066
    STRESS:  cpu time    0.0469: real time    0.0480
    FORCOR:  cpu time    0.1094: real time    0.1007
    FORHAR:  cpu time    0.0312: real time    0.0389
    MIXING:  cpu time    0.0156: real time    0.0046
    OFIELD:  cpu time    0.0000: real time    0.0000

  FORCE on cell =-STRESS in cart. coord.  units (eV):
  Direction    XX          YY          ZZ          XY          YZ          ZX
  --------------------------------------------------------------------------------------
  Alpha Z     0.68709     0.68709     0.68709
  Ewald      95.78167    67.16895   -89.96515    -0.00000     0.00000    -0.00000
  Hartree   141.53067   114.89654    65.55321    -0.00000    -0.00000    -0.00000
  E(xc)     -31.47426   -31.47525   -31.91381     0.00000    -0.00000    -0.00000
  Local    -299.13110  -243.90847   -75.62587    -0.00000     0.00000     0.00000
  n-local   -24.96297   -24.95329   -26.59603     0.00000     0.00000    -0.00000
  augment     1.18936     1.19119     2.20705    -0.00000     0.00000     0.00000
  Kinetic   120.22735   120.19850   154.74486     0.00000    -0.00000     0.00000
  Fock        0.00000     0.00000     0.00000     0.00000     0.00000     0.00000
  -------------------------------------------------------------------------------------
  Total       3.84780     3.80524    -0.90866     0.00000     0.00000     0.00000
  in kB      18.34779    18.14487    -4.33286     0.00000     0.00000     0.00000
  external pressure =       10.72 kB  Pullay stress =        0.00 kB


 VOLUME and BASIS-vectors are now :
 -----------------------------------------------------------------------------
  energy-cutoff  :      400.00
  volume of cell :      336.00
      direct lattice vectors                 reciprocal lattice vectors
     6.000000000  0.000000000  0.000000000     0.166666667  0.000000000  0.000000000
     0.000000000  7.000000000  0.000000000     0.000000000  0.142857143  0.000000000
     0.000000000  0.000000000  8.000000000     0.000000000  0.000000000  0.125000000

  length of vectors
     6.000000000  7.000000000  8.000000000     0.166666667  0.142857143  0.125000000


 FORCES acting on ions
    electron-ion (+dipol)            ewald-force                    non-local-force                 convergence-correction
 -----------------------------------------------------------------------------------------------
   -.647E+02 -.380E+02 -.133E-06   0.755E+02 0.442E+02 0.959E-17   -.786E+01 -.453E+01 0.000E+00   -.198E-02 -.111E-02 -.923E-14
   0.192E-13 0.759E+02 0.183E-06   -.440E-16 -.882E+02 -.325E-17   0.000E+00 0.907E+01 0.000E+00   0.137E-14 0.230E-02 -.560E-14
   0.647E+02 -.380E+02 0.213E-06   -.755E+02 0.442E+02 0.108E-16   0.786E+01 -.453E+01 0.000E+00   0.198E-02 -.111E-02 -.641E-14
   0.969E-13 0.761E-01 0.224E-08   0.996E-13 -.955E-01 -.171E-16   0.000E+00 0.296E-01 0.000E+00   0.149E-13 0.158E-03 -.497E-13
 -----------------------------------------------------------------------------------------------
   0.338E-12 -.331E-01 0.266E-06   0.951E-16 0.705E-14 0.000E+00   0.000E+00 0.330E-01 0.000E+00   0.154E-13 0.233E-03 -.709E-13


 POSITION                                       TOTAL-FORCE (eV/Angst)
 -----------------------------------------------------------------------------------
      3.82029      3.97319      4.00000         2.850946      1.643090      0.000000
      3.00000      2.55290      4.00000         0.000000     -3.296482      0.000000
      2.17971      3.97319      4.00000        -2.850946      1.643090      0.000000
      3.00000      3.50001      4.00000         0.000000      0.010301      0.000000
 -----------------------------------------------------------------------------------
    total drift:                                0.000000      0.000222      0.000000


--------------------------------------------------------------------------------------------------------



  FREE ENERGIE OF THE ION-ELECTRON SYSTEM (eV)
  ---------------------------------------------------
  free  energy   TOTEN  =       -19.00642793 eV

  energy  without entropy=      -19.01802374  energy(sigma->0) =      -19.01029320

 d Force = 0.2004701E-01[ 0.196E-01, 0.204E-01]  d Energy = 0.2004050E-01 0.651E-05
 d Force = 0.5244309E+00[ 0.523E+00, 0.526E+00]  d Ewald  = 0.5244297E+00 0.118E-05


--------------------------------------------------------------------------------------------------------


    POTLOK:  cpu time    0.0938: real time    0.1050


--------------------------------------------------------------------------------------------------------


 NEB: the previous image is higher in energy: F
 NEB: the next image is higher in energy    : F
 NEB: image is at an extrema
 NEB: diff energy (min, max):     0.232550    0.232550

 NEB: Tangent
 ----------------------------------------------
     -0.00000     -0.00000     -0.57747
      0.00000      0.00000     -0.57710
      0.00000     -0.00000     -0.57747
      0.00000      0.00000      0.00339

 NEB: forces: par spring, perp REAL, dneb     0.000000    5.702823    0.000000
 NEB: distance to prev, next image, angle between     0.340553    0.340553  179.610588
 NEB: projections on to tangent (spring, REAL)     0.000000   -0.000000

 stress matrix after NEB project (eV)
      3.84780      0.00000      0.00000
      0.00000      3.80524      0.00000
      0.00000      0.00000     -0.90866
  FORCES: max atom, RMS     3.296482    2.851411
  FORCE total and by dimension    5.702823    3.296482
  Stress total and by dimension    5.487361    3.847801
 
 OPT: Flag T
 OPT: LBFGS Step
 OPT: LBFGS start
 OPT: LBFGS, invcurv =    7.9255697933769392E-003
 OPT: LBFGS, bound:            0
 OPT: LBFGS: positions in Cartesian coordinates
      3.84288570      3.98621402      4.00000000
      3.00000000      2.52677690      4.00000000
      2.15711430      3.98621402      4.00000000
      3.00000000      3.50008806      4.00000000
 OPT: LBFGS END subroutine


--------------------------------------------------------------------------------------------------------


    WAVPRE:  cpu time    0.0938: real time    0.0945
    FEWALD:  cpu time    0.0000: real time    0.0002
    ORTHCH:  cpu time    0.0156: real time    0.0028
     LOOP+:  cpu time    1.1250: real time    1.1182


--------------------------------------- Iteration      3(   1)  ---------------------------------------


    POTLOK:  cpu time    0.1094: real time    0.1218
    SETDIJ:  cpu time    0.0156: real time    0.0035
     EDDAV:  cpu time    0.0312: real time    0.0323
       DOS:  cpu time    0.0000: real time    0.0002
    CHARGE:  cpu time    0.0156: real time    0.0129
    MIXING:  cpu time    0.0000: real time    0.0041
    --------------------------------------------
      LOOP:  cpu time    0.1719: real time    0.1748

 eigenvalue-minimisations  :    16
 total energy-change (2. order) :-0.2058690E+00  (-0.1058525E+00)
 number of electron       8.0000051 magnetization 
 augmentation part        0.3366789 magnetization 

 Broyden mixing:
  rms(total) = 0.77204E-01    rms(broyden)= 0.77163E-01
  rms(prec ) = 0.10758E+00
  weight for this iteration     100.00

 Free energy of the ion-electron system (eV)
  ---------------------------------------------------
  alpha Z        PSCENC =         0.68708806
  Ewald energy   TEWEN  =        66.31056260
  -Hartree energ DENC   =      -318.69440000
  -exchange      EXHF   =         0.00000000
  -V(xc)+E(xc)   XCENC  =        29.40590203
  PAW double counting   =       677.17459784     -678.90245060
  entropy T*S    EENTRO =         0.01159581
  eigenvalues    EBANDS =       -97.11609262
  atomic energy  EATOM  =       301.91090041
  Solvation  Ediel_sol  =         0.00000000
  ---------------------------------------------------
  free energy    TOTEN  =       -19.21229647 eV

  energy without entropy =      -19.22389228  energy(sigma->0) =      -19.21616174


--------------------------------------------------------------------------------------------------------




--------------------------------------- Iteration      3(   2)  ---------------------------------------


    POTLOK:  cpu time    0.1094: real time    0.1140
    SETDIJ:  cpu time    0.0000: real time    0.0032
     EDDAV:  cpu time    0.0625: real time    0.0505
       DOS:  cpu time    0.0000: real time    0.0004
    CHARGE:  cpu time    0.0000: real time    0.0127
    MIXING:  cpu time    0.0156: real time    0.0039
    --------------------------------------------
      LOOP:  cpu time    0.1875: real time    0.1847

 eigenvalue-minimisations  :    24
 total energy-change (2. order) : 0.1343351E-01  (-0.5998518E-02)
 number of electron       8.0000051 magnetization 
 augmentation part        0.3424247 magnetization 

 Broyden mixing:
  rms(total) = 0.29574E-01    rms(broyden)= 0.29534E-01
  rms(prec ) = 0.33392E-01
  weight for this iteration     100.00

 eigenvalues of (default mixing * dielectric matrix)
  average eigenvalue GAMMA=   1.2347
  1.2347

 Free energy of the ion-electron system (eV)
  ---------------------------------------------------
  alpha Z        PSCENC =         0.68708806
  Ewald energy   TEWEN  =        66.31056260
  -Hartree energ DENC   =      -317.06153691
  -exchange      EXHF   =         0.00000000
  -V(xc)+E(xc)   XCENC  =        29.31251209
  PAW double counting   =       662.07151824     -663.77417110
  entropy T*S    EENTRO =         0.01159581
  eigenvalues    EBANDS =       -98.66733217
  atomic energy  EATOM  =       301.91090041
  Solvation  Ediel_sol  =         0.00000000
  ---------------------------------------------------
  free energy    TOTEN  =       -19.19886297 eV

  energy without entropy =      -19.21045878  energy(sigma->0) =      -19.20272824


--------------------------------------------------------------------------------------------------------




--------------------------------------- Iteration      3(   3)  ---------------------------------------


    POTLOK:  cpu time    0.1094: real time    0.1165
    SETDIJ:  cpu time    0.0000: real time    0.0039
     EDDAV:  cpu time    0.0469: real time    0.0478
       DOS:  cpu time    0.0000: real time    0.0002
    CHARGE:  cpu time    0.0156: real time    0.0153
    MIXING:  cpu time    0.0156: real time    0.0041
    --------------------------------------------
      LOOP:  cpu time    0.1875: real time    0.1877

 eigenvalue-minimisations  :    24
 total energy-change (2. order) : 0.3721438E-03  (-0.1918386E-03)
 number of electron       8.0000052 magnetization 
 augmentation part        0.3434815 magnetization 

 Broyden mixing:
  rms(total) = 0.17330E-01    rms(broyden)= 0.17323E-01
  rms(prec ) = 0.18665E-01
  weight for this iteration     100.00

 eigenvalues of (default mixing * dielectric matrix)
  average eigenvalue GAMMA=   1.9730
  1.1876  2.7584

 Free energy of the ion-electron system (eV)
  ---------------------------------------------------
  alpha Z        PSCENC =         0.68708806
  Ewald energy   TEWEN  =        66.31056260
  -Hartree energ DENC   =      -316.80004173
  -exchange      EXHF   =         0.00000000
  -V(xc)+E(xc)   XCENC  =        29.29673015
  PAW double counting   =       652.43267924     -654.12724138
  entropy T*S    EENTRO =         0.01159581
  eigenvalues    EBANDS =       -98.92076398
  atomic energy  EATOM  =       301.91090041
  Solvation  Ediel_sol  =         0.00000000
  ---------------------------------------------------
  free energy    TOTEN  =       -19.19849082 eV

  energy without entropy =      -19.21008663  energy(sigma->0) =      -19.20235609


--------------------------------------------------------------------------------------------------------




--------------------------------------- Iteration      3(   4)  ---------------------------------------


    POTLOK:  cpu time    0.1250: real time    0.1306
    SETDIJ:  cpu time    0.0000: real time    0.0027
     EDDAV:  cpu time    0.0312: real time    0.0367
       DOS:  cpu time    0.0000: real time    0.0001
    CHARGE:  cpu time    0.0156: real time    0.0092
    MIXING:  cpu time    0.0000: real time    0.0045
    --------------------------------------------
      LOOP:  cpu time    0.1719: real time    0.1839

 eigenvalue-minimisations  :    16
 total energy-change (2. order) :-0.2731762E-04  (-0.5371504E-04)
 number of electron       8.0000052 magnetization 
 augmentation part        0.3431599 magnetization 

 Broyden mixing:
  rms(total) = 0.34287E-02    rms(broyden)= 0.34285E-02
  rms(prec ) = 0.44693E-02
  weight for this iteration     100.00

 eigenvalues of (default mixing * dielectric matrix)
  average eigenvalue GAMMA=   1.5311
  2.4287  1.0823  1.0823

 Free energy of the ion-electron system (eV)
  ---------------------------------------------------
  alpha Z        PSCENC =         0.68708806
  Ewald energy   TEWEN  =        66.31056260
  -Hartree energ DENC   =      -316.86002544
  -exchange      EXHF   =         0.00000000
  -V(xc)+E(xc)   XCENC  =        29.29870903
  PAW double counting   =       640.30986857     -641.99893725
  entropy T*S    EENTRO =         0.01159581
  eigenvalues    EBANDS =       -98.86827993
  atomic energy  EATOM  =       301.91090041
  Solvation  Ediel_sol  =         0.00000000
  ---------------------------------------------------
  free energy    TOTEN  =       -19.19851814 eV

  energy without entropy =      -19.21011395  energy(sigma->0) =      -19.20238341


--------------------------------------------------------------------------------------------------------




--------------------------------------- Iteration      3(   5)  ---------------------------------------


    POTLOK:  cpu time    0.1094: real time    0.1045
    SETDIJ:  cpu time    0.0000: real time    0.0038
     EDDAV:  cpu time    0.0469: real time    0.0496
       DOS:  cpu time    0.0000: real time    0.0001
    CHARGE:  cpu time    0.0156: real time    0.0101
    MIXING:  cpu time    0.0156: real time    0.0046
    --------------------------------------------
      LOOP:  cpu time    0.1875: real time    0.1727

 eigenvalue-minimisations  :    32
 total energy-change (2. order) : 0.2551317E-05  (-0.1090841E-04)
 number of electron       8.0000052 magnetization 
 augmentation part        0.3434063 magnetization 

 Broyden mixing:
  rms(total) = 0.50155E-03    rms(broyden)= 0.49936E-03
  rms(prec ) = 0.99845E-03
  weight for this iteration     100.00

 eigenvalues of (default mixing * dielectric matrix)
  average eigenvalue GAMMA=   1.5637
  2.4090  1.7269  1.0595  1.0595

 Free energy of the ion-electron system (eV)
  ---------------------------------------------------
  alpha Z        PSCENC =         0.68708806
  Ewald energy   TEWEN  =        66.31056260
  -Hartree energ DENC   =      -316.80668694
  -exchange      EXHF   =         0.00000000
  -V(xc)+E(xc)   XCENC  =        29.29614383
  PAW double counting   =       641.38159199     -643.07061766
  entropy T*S    EENTRO =         0.01159581
  eigenvalues    EBANDS =       -98.91909369
  atomic energy  EATOM  =       301.91090041
  Solvation  Ediel_sol  =         0.00000000
  ---------------------------------------------------
  free energy    TOTEN  =       -19.19851559 eV

  energy without entropy =      -19.21011140  energy(sigma->0) =      -19.20238086


--------------------------------------------------------------------------------------------------------




--------------------------------------- Iteration      3(   6)  ---------------------------------------


    POTLOK:  cpu time    0.1094: real time    0.1239
    SETDIJ:  cpu time    0.0000: real time    0.0022
     EDDAV:  cpu time    0.0469: real time    0.0312
       DOS:  cpu time    0.0000: real time    0.0001
    CHARGE:  cpu time    0.0000: real time    0.0122
    MIXING:  cpu time    0.0156: real time    0.0050
    --------------------------------------------
      LOOP:  cpu time    0.1719: real time    0.1746

 eigenvalue-minimisations  :    16
 total energy-change (2. order) :-0.2795759E-04  (-0.3117783E-06)
 number of electron       8.0000052 magnetization 
 augmentation part        0.3433770 magnetization 

 Broyden mixing:
  rms(total) = 0.21275E-03    rms(broyden)= 0.21270E-03
  rms(prec ) = 0.54493E-03
  weight for this iteration     100.00

 eigenvalues of (default mixing * dielectric matrix)
  average eigenvalue GAMMA=   1.6615
  2.7948  2.3830  1.1124  1.0087  1.0087

 Free energy of the ion-electron system (eV)
  ---------------------------------------------------
  alpha Z        PSCENC =         0.68708806
  Ewald energy   TEWEN  =        66.31056260
  -Hartree energ DENC   =      -316.81846573
  -exchange      EXHF   =         0.00000000
  -V(xc)+E(xc)   XCENC  =        29.29706833
  PAW double counting   =       641.25976902     -642.94885822
  entropy T*S    EENTRO =         0.01159581
  eigenvalues    EBANDS =       -98.90820384
  atomic energy  EATOM  =       301.91090041
  Solvation  Ediel_sol  =         0.00000000
  ---------------------------------------------------
  free energy    TOTEN  =       -19.19854355 eV

  energy without entropy =      -19.21013936  energy(sigma->0) =      -19.20240882


--------------------------------------------------------------------------------------------------------




--------------------------------------- Iteration      3(   7)  ---------------------------------------


    POTLOK:  cpu time    0.1250: real time    0.1252
    SETDIJ:  cpu time    0.0000: real time    0.0021
     EDDAV:  cpu time    0.0312: real time    0.0391
       DOS:  cpu time    0.0000: real time    0.0001
    CHARGE:  cpu time    0.0156: real time    0.0123
    MIXING:  cpu time    0.0000: real time    0.0046
    --------------------------------------------
      LOOP:  cpu time    0.1719: real time    0.1834

 eigenvalue-minimisations  :    16
 total energy-change (2. order) :-0.2343453E-04  (-0.2050067E-06)
 number of electron       8.0000052 magnetization 
 augmentation part        0.3433884 magnetization 

 Broyden mixing:
  rms(total) = 0.13111E-03    rms(broyden)= 0.13107E-03
  rms(prec ) = 0.28500E-03
  weight for this iteration     100.00

 eigenvalues of (default mixing * dielectric matrix)
  average eigenvalue GAMMA=   1.9625
  3.8653  2.5223  2.2890  1.0272  1.0272  1.0438

 Free energy of the ion-electron system (eV)
  ---------------------------------------------------
  alpha Z        PSCENC =         0.68708806
  Ewald energy   TEWEN  =        66.31056260
  -Hartree energ DENC   =      -316.81696735
  -exchange      EXHF   =         0.00000000
  -V(xc)+E(xc)   XCENC  =        29.29717651
  PAW double counting   =       641.14235483     -642.83138263
  entropy T*S    EENTRO =         0.01159581
  eigenvalues    EBANDS =       -98.90989523
  atomic energy  EATOM  =       301.91090041
  Solvation  Ediel_sol  =         0.00000000
[...]
   -.600E+02 -.353E+02 0.860E-02   0.664E+02 0.390E+02 -.772E-02   -.649E+01 -.375E+01 0.000E+00   0.517E-03 0.551E-03 0.446E-04
   0.168E-13 0.705E+02 0.809E-02   0.495E-15 -.780E+02 -.737E-02   0.000E+00 0.752E+01 0.000E+00   0.396E-14 -.122E-02 0.457E-04
   0.600E+02 -.353E+02 0.860E-02   -.664E+02 0.390E+02 -.772E-02   0.649E+01 -.375E+01 0.000E+00   -.517E-03 0.551E-03 0.446E-04
   0.103E-12 0.219E-01 -.338E-01   -.701E-14 -.260E-01 0.228E-01   0.000E+00 0.501E-01 0.000E+00   0.448E-13 0.621E-02 0.606E-03
 -----------------------------------------------------------------------------------------------
   0.124E-12 -.749E-01 -.855E-02   -.701E-14 -.520E-16 0.000E+00   -.888E-15 0.709E-01 0.000E+00   0.501E-13 0.609E-02 0.741E-03


 POSITION                                       TOTAL-FORCE (eV/Angst)
 -----------------------------------------------------------------------------------
      3.87173      4.00275      3.99993        -0.054386     -0.033653      0.000000
      3.00000      2.49401      3.99993        -0.000000      0.015556      0.000000
      2.12827      4.00275      3.99993         0.054386     -0.033653      0.000000
      3.00000      3.49978      4.00004        -0.000000      0.051749      0.000000
 -----------------------------------------------------------------------------------
    total drift:                                0.000000      0.002042     -0.007804


--------------------------------------------------------------------------------------------------------



  FREE ENERGIE OF THE ION-ELECTRON SYSTEM (eV)
  ---------------------------------------------------
  free  energy   TOTEN  =       -19.27583019 eV

  energy  without entropy=      -19.28742600  energy(sigma->0) =      -19.27969546

 d Force =-0.7580253E-04[-0.121E-03,-0.309E-04]  d Energy =-0.7509982E-04-0.703E-06
 d Force = 0.1299349E+00[ 0.130E+00, 0.130E+00]  d Ewald  = 0.1299348E+00 0.549E-07


--------------------------------------------------------------------------------------------------------


    POTLOK:  cpu time    0.1406: real time    0.1448


--------------------------------------------------------------------------------------------------------


 NEB: the previous image is higher in energy: F
 NEB: the next image is higher in energy    : F
 NEB: image is at an extrema
 NEB: diff energy (min, max):     0.214132    0.214146

 NEB: Tangent
 ----------------------------------------------
      0.00033      0.00028     -0.51535
      0.00000      0.00121     -0.50539
     -0.00033      0.00028     -0.51535
      0.00000     -0.00177      0.46195

 NEB: forces: par spring, perp REAL, dneb     0.000212    0.105360    0.000000
 NEB: distance to prev, next image, angle between     0.395361    0.395318  151.939211
 NEB: projections on to tangent (spring, REAL)    -0.000212   -0.000127

 stress matrix after NEB project (eV)
     -0.77101      0.00000      0.00000
      0.00000     -0.79937      0.00000
      0.00000      0.00000     -0.85148
  FORCES: max atom, RMS     0.063956    0.052680
  FORCE total and by dimension    0.105360    0.054386
  Stress total and by dimension    1.399451    0.851475
 
 OPT: Flag T
 OPT: LBFGS Step
 OPT: LBFGS start
 OPT: LBFGS, invcurv =   0.14723671779572450     
 OPT: LBFGS, adding new vector
 OPT: LBFGS, DeltaG:
      0.03798209      0.02356023      0.00014711
      0.00000000      0.01112922      0.00014436
     -0.03798209      0.02356023      0.00014711
      0.00000000     -0.05824967     -0.00013413
 OPT: LBFGS, DeltaR:
      0.00067930      0.00031467     -0.00001836
      0.00000000     -0.00019233     -0.00001749
     -0.00067930      0.00031467     -0.00001836
      0.00000000     -0.00043701      0.00001157
 OPT: LBFGS, itr, rho:           18   196.54836731396543     
 OPT: LBFGS, bound:           18
 OPT: LBFGS: positions in Cartesian coordinates
      3.87073558      4.00215171      3.99992726
      3.00000000      2.49487732      3.99993141
      2.12926442      4.00215171      3.99992726
      3.00000000      3.50011227      4.00003767
 OPT: LBFGS END subroutine


--------------------------------------------------------------------------------------------------------


    WAVPRE:  cpu time    1.5000: real time    1.5191
    FEWALD:  cpu time    0.0000: real time    0.0004
    ORTHCH:  cpu time    0.0000: real time    0.0034
     LOOP+:  cpu time    2.5625: real time    2.5835


--------------------------------------- Iteration     21(   1)  ---------------------------------------


    POTLOK:  cpu time    0.1250: real time    0.1345
    SETDIJ:  cpu time    0.0000: real time    0.0026
     EDDAV:  cpu time    0.0469: real time    0.0432
       DOS:  cpu time    0.0000: real time    0.0002
    CHARGE:  cpu time    0.0156: real time    0.0127
    MIXING:  cpu time    0.0000: real time    0.0039
    --------------------------------------------
      LOOP:  cpu time    0.1875: real time    0.1971

 eigenvalue-minimisations  :    16
 total energy-change (2. order) :-0.1022732E-03  (-0.2113700E-03)
 number of electron       8.0000050 magnetization 
 augmentation part        0.3307826 magnetization 

 Broyden mixing:
  rms(total) = 0.25723E-02    rms(broyden)= 0.25704E-02
  rms(prec ) = 0.35533E-02
  weight for this iteration     100.00

 Free energy of the ion-electron system (eV)
  ---------------------------------------------------
  alpha Z        PSCENC =         0.68708806
  Ewald energy   TEWEN  =        58.60908266
  -Hartree energ DENC   =      -310.65279122
  -exchange      EXHF   =         0.00000000
  -V(xc)+E(xc)   XCENC  =        28.95786632
  PAW double counting   =       599.37538982     -601.02208508
  entropy T*S    EENTRO =         0.01159581
  eigenvalues    EBANDS =       -97.15298008
  atomic energy  EATOM  =       301.91090041
  Solvation  Ediel_sol  =         0.00000000
  ---------------------------------------------------
  free energy    TOTEN  =       -19.27593330 eV

  energy without entropy =      -19.28752911  energy(sigma->0) =      -19.27979857


--------------------------------------------------------------------------------------------------------




--------------------------------------- Iteration     21(   2)  ---------------------------------------


    POTLOK:  cpu time    0.1250: real time    0.1213
    SETDIJ:  cpu time    0.0000: real time    0.0038
     EDDAV:  cpu time    0.0312: real time    0.0302
       DOS:  cpu time    0.0000: real time    0.0004
    CHARGE:  cpu time    0.0156: real time    0.0142
    MIXING:  cpu time    0.0000: real time    0.0043
    --------------------------------------------
      LOOP:  cpu time    0.1719: real time    0.1741

 eigenvalue-minimisations  :    16
 total energy-change (2. order) : 0.1364607E-04  (-0.6239002E-05)
 number of electron       8.0000050 magnetization 
 augmentation part        0.3306321 magnetization 

 Broyden mixing:
  rms(total) = 0.10497E-02    rms(broyden)= 0.10482E-02
  rms(prec ) = 0.12929E-02
  weight for this iteration     100.00

 eigenvalues of (default mixing * dielectric matrix)
  average eigenvalue GAMMA=   1.3970
  1.3970

 Free energy of the ion-electron system (eV)
  ---------------------------------------------------
  alpha Z        PSCENC =         0.68708806
  Ewald energy   TEWEN  =        58.60908266
  -Hartree energ DENC   =      -310.70461963
  -exchange      EXHF   =         0.00000000
  -V(xc)+E(xc)   XCENC  =        28.96085510
  PAW double counting   =       599.89595985     -601.54341703
  entropy T*S    EENTRO =         0.01159581
  eigenvalues    EBANDS =       -97.10336489
  atomic energy  EATOM  =       301.91090041
  Solvation  Ediel_sol  =         0.00000000
  ---------------------------------------------------
  free energy    TOTEN  =       -19.27591966 eV

  energy without entropy =      -19.28751547  energy(sigma->0) =      -19.27978493


--------------------------------------------------------------------------------------------------------




--------------------------------------- Iteration     21(   3)  ---------------------------------------


    POTLOK:  cpu time    0.1250: real time    0.1285
    SETDIJ:  cpu time    0.0156: real time    0.0036
     EDDAV:  cpu time    0.0312: real time    0.0488
       DOS:  cpu time    0.0000: real time    0.0003
    CHARGE:  cpu time    0.0312: real time    0.0136
    MIXING:  cpu time    0.0000: real time    0.0028
    --------------------------------------------
      LOOP:  cpu time    0.2031: real time    0.1976

 eigenvalue-minimisations  :    16
 total energy-change (2. order) : 0.6151699E-06  (-0.1107543E-05)
 number of electron       8.0000050 magnetization 
 augmentation part        0.3305552 magnetization 

 Broyden mixing:
  rms(total) = 0.58068E-03    rms(broyden)= 0.58015E-03
  rms(prec ) = 0.67004E-03
  weight for this iteration     100.00

 eigenvalues of (default mixing * dielectric matrix)
  average eigenvalue GAMMA=   1.2611
  1.2611  1.2611

 Free energy of the ion-electron system (eV)
  ---------------------------------------------------
  alpha Z        PSCENC =         0.68708806
  Ewald energy   TEWEN  =        58.60908266
  -Hartree energ DENC   =      -310.72189318
  -exchange      EXHF   =         0.00000000
  -V(xc)+E(xc)   XCENC  =        28.96185818
  PAW double counting   =       600.23224805     -601.88003778
  entropy T*S    EENTRO =         0.01159581
  eigenvalues    EBANDS =       -97.08676124
  atomic energy  EATOM  =       301.91090041
  Solvation  Ediel_sol  =         0.00000000
  ---------------------------------------------------
  free energy    TOTEN  =       -19.27591904 eV

  energy without entropy =      -19.28751485  energy(sigma->0) =      -19.27978431


--------------------------------------------------------------------------------------------------------




--------------------------------------- Iteration     21(   4)  ---------------------------------------


    POTLOK:  cpu time    0.1406: real time    0.1358
    SETDIJ:  cpu time    0.0000: real time    0.0036
     EDDAV:  cpu time    0.0625: real time    0.0682
       DOS:  cpu time    0.0000: real time    0.0003
    --------------------------------------------
      LOOP:  cpu time    0.2031: real time    0.2079

 eigenvalue-minimisations  :    32
 total energy-change (2. order) : 0.1135609E-06  (-0.1921787E-06)
 number of electron       8.0000050 magnetization 
 augmentation part        0.3305552 magnetization 

 Free energy of the ion-electron system (eV)
  ---------------------------------------------------
  alpha Z        PSCENC =         0.68708806
  Ewald energy   TEWEN  =        58.60908266
  -Hartree energ DENC   =      -310.71486680
  -exchange      EXHF   =         0.00000000
  -V(xc)+E(xc)   XCENC  =        28.96149264
  PAW double counting   =       600.36034203     -602.00811372
  entropy T*S    EENTRO =         0.01159581
  eigenvalues    EBANDS =       -97.09344001
  atomic energy  EATOM  =       301.91090041
  Solvation  Ediel_sol  =         0.00000000
  ---------------------------------------------------
  free energy    TOTEN  =       -19.27591893 eV

  energy without entropy =      -19.28751474  energy(sigma->0) =      -19.27978420


--------------------------------------------------------------------------------------------------------




 average (electrostatic) potential at core
  the test charge radii are     0.5201  0.7089
  (the norm of the test charge is              1.0000)
       1 -43.0653       2 -43.0605       3 -43.0653       4 -72.3634



 E-fermi :  -4.9250     XC(G=0):  -1.7125     alpha+bet : -0.5051


 k-point     1 :       0.0000    0.0000    0.0000
  band No.  band energies     occupation 
      1     -20.4537      2.00000
      2     -11.5004      2.00000
      3     -11.4991      2.00000
      4      -5.0934      2.00000
      5      -1.1085     -0.00000
      6       1.3608      0.00000
      7       1.6596      0.00000
      8       1.7233      0.00000


--------------------------------------------------------------------------------------------------------


 soft charge-density along one line, spin component           1
         0         1         2         3         4         5         6         7         8         9
 total charge-density along one line

 pseudopotential strength for first ion, spin component:           1
 -2.362  -4.074   0.001  -0.000   0.002
 -4.074  -6.941   0.004  -0.000   0.006
  0.001   0.004  -0.328  -0.000   0.003
 -0.000  -0.000  -0.000  -0.331  -0.000
  0.002   0.006   0.003  -0.000  -0.325
 total augmentation occupancy for first ion, spin component:           1
  3.895  -0.781  -0.307   0.000  -0.532
 -0.781   0.176   0.062   0.000   0.107
 -0.307   0.062   0.034   0.000   0.037
  0.000   0.000   0.000   0.033   0.000
 -0.532   0.107   0.037   0.000   0.076


------------------------ aborting loop because EDIFF is reached ----------------------------------------


    CHARGE:  cpu time    0.0156: real time    0.0133
    FORLOC:  cpu time    0.0156: real time    0.0089
    FORNL :  cpu time    0.0000: real time    0.0067
    STRESS:  cpu time    0.0625: real time    0.0529
    FORCOR:  cpu time    0.1094: real time    0.1220
    FORHAR:  cpu time    0.0469: real time    0.0345
    MIXING:  cpu time    0.0000: real time    0.0038
    OFIELD:  cpu time    0.0000: real time    0.0000

  FORCE on cell =-STRESS in cart. coord.  units (eV):
  Direction    XX          YY          ZZ          XY          YZ          ZX
  --------------------------------------------------------------------------------------
  Alpha Z     0.68709     0.68709     0.68709
  Ewald      88.58033    60.02951   -90.00078     0.00000    -0.00033    -0.00000
  Hartree   137.90515   111.40170    61.41518    -0.00000    -0.00000    -0.00000
  E(xc)     -30.80025   -30.80169   -31.26173     0.00000     0.00000    -0.00000
  Local    -291.19043  -236.15988   -70.01675     0.00000     0.00020     0.00000
  n-local   -23.12210   -23.10805   -25.37008    -0.00000    -0.00001    -0.00000
  augment     1.19228     1.19128     2.12558    -0.00000     0.00000    -0.00000
  Kinetic   116.06125   116.01685   151.57090    -0.00000     0.00012     0.00000
  Fock        0.00000     0.00000     0.00000     0.00000     0.00000     0.00000
  -------------------------------------------------------------------------------------
  Total      -0.68668    -0.74319    -0.85059     0.00000     0.00000     0.00000
  in kB      -3.27436    -3.54380    -4.05596     0.00000     0.00000     0.00000
  external pressure =       -3.62 kB  Pullay stress =        0.00 kB


 VOLUME and BASIS-vectors are now :
 -----------------------------------------------------------------------------
  energy-cutoff  :      400.00
  volume of cell :      336.00
      direct lattice vectors                 reciprocal lattice vectors
     6.000000000  0.000000000  0.000000000     0.166666667  0.000000000  0.000000000
     0.000000000  7.000000000  0.000000000     0.000000000  0.142857143  0.000000000
     0.000000000  0.000000000  8.000000000     0.000000000  0.000000000  0.125000000

  length of vectors
     6.000000000  7.000000000  8.000000000     0.166666667  0.142857143  0.125000000


 FORCES acting on ions
    electron-ion (+dipol)            ewald-force                    non-local-force                 convergence-correction
 -----------------------------------------------------------------------------------------------
   -.601E+02 -.353E+02 0.846E-02   0.666E+02 0.391E+02 -.782E-02   -.652E+01 -.376E+01 0.000E+00   0.712E-03 0.283E-03 0.277E-04
   0.181E-13 0.705E+02 0.797E-02   0.836E-15 -.781E+02 -.748E-02   0.000E+00 0.753E+01 0.000E+00   0.250E-14 -.626E-03 0.275E-04
   0.601E+02 -.353E+02 0.846E-02   -.666E+02 0.391E+02 -.782E-02   0.652E+01 -.376E+01 0.000E+00   -.712E-03 0.283E-03 0.277E-04
   0.105E-12 0.739E-01 -.362E-01   -.701E-14 -.999E-01 0.231E-01   0.000E+00 0.413E-01 0.000E+00   0.195E-13 -.229E-02 0.283E-03
 -----------------------------------------------------------------------------------------------
   0.240E-12 -.446E-01 -.113E-01   -.701E-14 -.555E-16 0.000E+00   0.000E+00 0.476E-01 0.000E+00   0.223E-13 -.235E-02 0.365E-03


 POSITION                                       TOTAL-FORCE (eV/Angst)
 -----------------------------------------------------------------------------------
      3.87074      4.00215      3.99993        -0.001799     -0.001149      0.000000
      3.00000      2.49488      3.99993        -0.000000     -0.010605      0.000000
      2.12926      4.00215      3.99993         0.001799     -0.001149      0.000000
      3.00000      3.50011      4.00004        -0.000000      0.012903      0.000000
 -----------------------------------------------------------------------------------
    total drift:                                0.000000      0.000649     -0.010942


--------------------------------------------------------------------------------------------------------



  FREE ENERGIE OF THE ION-ELECTRON SYSTEM (eV)
  ---------------------------------------------------
  free  energy   TOTEN  =       -19.27591893 eV

  energy  without entropy=      -19.28751474  energy(sigma->0) =      -19.27978420

 d Force = 0.8956641E-04[-0.282E-07, 0.179E-03]  d Energy = 0.8873518E-04 0.831E-06
 d Force =-0.2471510E+00[-0.247E+00,-0.247E+00]  d Ewald  =-0.2471508E+00-0.171E-06


--------------------------------------------------------------------------------------------------------


    POTLOK:  cpu time    0.1250: real time    0.1325


--------------------------------------------------------------------------------------------------------


 NEB: the previous image is higher in energy: F
 NEB: the next image is higher in energy    : F
 NEB: image is at an extrema
 NEB: diff energy (min, max):     0.215618    0.215620

 NEB: Tangent
 ----------------------------------------------
     -0.00005     -0.00004     -0.50258
      0.00000      0.00003     -0.49517
      0.00005     -0.00004     -0.50258
      0.00000      0.00006      0.49964

 NEB: forces: par spring, perp REAL, dneb     0.000599    0.016972    0.000000
 NEB: distance to prev, next image, angle between     0.399971    0.399851  150.984573
 NEB: projections on to tangent (spring, REAL)    -0.000599    0.000001

 stress matrix after NEB project (eV)
     -0.68668      0.00000      0.00000
      0.00000     -0.74319      0.00000
      0.00000      0.00000     -0.85059
  FORCES: max atom, RMS     0.012903    0.008486
  FORCE total and by dimension    0.016972    0.012903
  Stress total and by dimension    1.321880    0.850595
 OPT: skip step - force has converged


--------------------------------------------------------------------------------------------------------


  
 reached required accuracy - stopping structural energy minimisation
 writing wavefunctions
     LOOP+:  cpu time    3.0156: real time    3.0196
    4ORBIT:  cpu time    0.0000: real time    0.0000

 total amount of memory used by VASP MPI-rank0    49277. kBytes
=======================================================================

   base      :      30000. kBytes
   nonl-proj :       1166. kBytes
   fftplans  :       6115. kBytes
   grid      :      11594. kBytes
   one-center:         12. kBytes
   wavefun   :        390. kBytes

  
  
 General timing and accounting informations for this job:
 ========================================================
  
                  Total CPU time used (sec):       52.016
                            User time (sec):       48.625
                          System time (sec):        3.391
                         Elapsed time (sec):       52.481
  
                   Maximum memory used (kb):       54256.
                   Average memory used (kb):           0.
  
                          Minor page faults:       593448
                          Major page faults:            0
                 Voluntary context switches:            0
